<?xml version="1.0"?>
<VTKFile type="UnstructuredGrid" version="0.1" byte_order="LittleEndian" header_type="UInt32" compressor="vtkZLibDataCompressor">
  <UnstructuredGrid>
    <Piece NumberOfPoints="1152" NumberOfCells="288">
      <PointData Vectors="displacement">
        <DataArray type="Float64" Name="displacement" NumberOfComponents="3" format="ascii" RangeMin="0.000041071870914753245" RangeMax="0.0007588931011264236">
          0.00004145839949077921 0.0000023312814009764654 -0.0000023312814009764527 0.00004145839949077921 0.0000023312814009764654 -0.0000023312814009764527
          0.00004145839949077921 0.0000023312814009764654 -0.0000023312814009764527 0.00004145839949077921 0.0000023312814009764654 -0.0000023312814009764527
          0.00004145839949077921 0.0000023312814009764654 -0.0000023312814009764527 0.00004145839949077921 0.0000023312814009764654 -0.0000023312814009764527
          0.00004145839949077921 0.0000023312814009764654 -0.0000023312814009764527 0.00004145839949077921 0.0000023312814009764654 -0.0000023312814009764527
          0.000041261019166467225 0.0000023294347008164044 -6.246649687213377e-7 0.000041261019166467225 0.0000023294347008164044 -6.246649687213377e-7
          0.000041261019166467225 0.0000023294347008164044 -6.246649687213377e-7 0.000041261019166467225 0.0000023294347008164044 -6.246649687213377e-7
          0.000041261019166467225 0.0000023294347008164044 -6.246649687213377e-7 0.000041261019166467225 0.0000023294347008164044 -6.246649687213377e-7
          0.000041261019166467225 0.0000023294347008164044 -6.246649687213377e-7 0.000041261019166467225 0.0000023294347008164044 -6.246649687213377e-7
          0.00004126101916646722 6.246649687213498e-7 -0.000002329434700816392 0.00004126101916646722 6.246649687213498e-7 -0.000002329434700816392
          0.00004126101916646722 6.246649687213498e-7 -0.000002329434700816392 0.00004126101916646722 6.246649687213498e-7 -0.000002329434700816392
          0.00004126101916646722 6.246649687213498e-7 -0.000002329434700816392 0.00004126101916646722 6.246649687213498e-7 -0.000002329434700816392
          0.00004126101916646722 6.246649687213498e-7 -0.000002329434700816392 0.00004126101916646722 6.246649687213498e-7 -0.000002329434700816392
          0.00004106238429138741 6.241701469047988e-7 -6.241701469047866e-7 0.00004106238429138741 6.241701469047988e-7 -6.241701469047866e-7
          0.00004106238429138741 6.241701469047988e-7 -6.241701469047866e-7 0.00004106238429138741 6.241701469047988e-7 -6.241701469047866e-7
          0.00004106238429138741 6.241701469047988e-7 -6.241701469047866e-7 0.00004106238429138741 6.241701469047988e-7 -6.241701469047866e-7
          0.00004106238429138741 6.241701469047988e-7 -6.241701469047866e-7 0.00004106238429138741 6.241701469047988e-7 -6.241701469047866e-7
          0.00015472485330007566 0.000008700460635184521 -0.000008700460635184472 0.00015472485330007566 0.000008700460635184521 -0.000008700460635184472
          0.00015472485330007566 0.000008700460635184521 -0.000008700460635184472 0.00015472485330007566 0.000008700460635184521 -0.000008700460635184472
          0.00015472485330007566 0.000008700460635184521 -0.000008700460635184472 0.00015472485330007566 0.000008700460635184521 -0.000008700460635184472
          0.00015472485330007566 0.000008700460635184521 -0.000008700460635184472 0.00015472485330007566 0.000008700460635184521 -0.000008700460635184472
          0.0001539882199013289 0.000008693568656360828 -0.000002331281400976456 0.0001539882199013289 0.000008693568656360828 -0.000002331281400976456
          0.0001539882199013289 0.000008693568656360828 -0.000002331281400976456 0.0001539882199013289 0.000008693568656360828 -0.000002331281400976456
          0.0001539882199013289 0.000008693568656360828 -0.000002331281400976456 0.0001539882199013289 0.000008693568656360828 -0.000002331281400976456
          0.0001539882199013289 0.000008693568656360828 -0.000002331281400976456 0.0001539882199013289 0.000008693568656360828 -0.000002331281400976456
          0.0001539882199013289 0.000002331281400976501 -0.000008693568656360783 0.0001539882199013289 0.000002331281400976501 -0.000008693568656360783
          0.0001539882199013289 0.000002331281400976501 -0.000008693568656360783 0.0001539882199013289 0.000002331281400976501 -0.000008693568656360783
          0.0001539882199013289 0.000002331281400976501 -0.000008693568656360783 0.0001539882199013289 0.000002331281400976501 -0.000008693568656360783
          0.0001539882199013289 0.000002331281400976501 -0.000008693568656360783 0.0001539882199013289 0.000002331281400976501 -0.000008693568656360783
          0.00015324690445537594 0.000002329434700816439 -0.000002329434700816394 0.00015324690445537594 0.000002329434700816439 -0.000002329434700816394
          0.00015324690445537594 0.000002329434700816439 -0.000002329434700816394 0.00015324690445537594 0.000002329434700816439 -0.000002329434700816394
          0.00015324690445537594 0.000002329434700816439 -0.000002329434700816394 0.00015324690445537594 0.000002329434700816439 -0.000002329434700816394
          0.00015324690445537594 0.000002329434700816439 -0.000002329434700816394 0.00015324690445537594 0.000002329434700816439 -0.000002329434700816394
          0.000041261019166467225 0.0000023294347008164053 6.246649687213356e-7 0.000041261019166467225 0.0000023294347008164053 6.246649687213356e-7
          0.000041261019166467225 0.0000023294347008164053 6.246649687213356e-7 0.000041261019166467225 0.0000023294347008164053 6.246649687213356e-7
          0.000041261019166467225 0.0000023294347008164053 6.246649687213356e-7 0.000041261019166467225 0.0000023294347008164053 6.246649687213356e-7
          0.000041261019166467225 0.0000023294347008164053 6.246649687213356e-7 0.000041261019166467225 0.0000023294347008164053 6.246649687213356e-7
          0.00004145839949077921 0.0000023312814009764667 0.000002331281400976451 0.00004145839949077921 0.0000023312814009764667 0.000002331281400976451
          0.00004145839949077921 0.0000023312814009764667 0.000002331281400976451 0.00004145839949077921 0.0000023312814009764667 0.000002331281400976451
          0.00004145839949077921 0.0000023312814009764667 0.000002331281400976451 0.00004145839949077921 0.0000023312814009764667 0.000002331281400976451
          0.00004145839949077921 0.0000023312814009764667 0.000002331281400976451 0.00004145839949077921 0.0000023312814009764667 0.000002331281400976451
          0.000041062384291387416 6.24170146904799e-7 6.241701469047856e-7 0.000041062384291387416 6.24170146904799e-7 6.241701469047856e-7
          0.000041062384291387416 6.24170146904799e-7 6.241701469047856e-7 0.000041062384291387416 6.24170146904799e-7 6.241701469047856e-7
          0.000041062384291387416 6.24170146904799e-7 6.241701469047856e-7 0.000041062384291387416 6.24170146904799e-7 6.241701469047856e-7
          0.000041062384291387416 6.24170146904799e-7 6.241701469047856e-7 0.000041062384291387416 6.24170146904799e-7 6.241701469047856e-7
          0.000041261019166467225 6.246649687213507e-7 0.0000023294347008163913 0.000041261019166467225 6.246649687213507e-7 0.0000023294347008163913
          0.000041261019166467225 6.246649687213507e-7 0.0000023294347008163913 0.000041261019166467225 6.246649687213507e-7 0.0000023294347008163913
          0.000041261019166467225 6.246649687213507e-7 0.0000023294347008163913 0.000041261019166467225 6.246649687213507e-7 0.0000023294347008163913
          0.000041261019166467225 6.246649687213507e-7 0.0000023294347008163913 0.000041261019166467225 6.246649687213507e-7 0.0000023294347008163913
          0.00015398821990132892 0.000008693568656360828 0.0000023312814009764476 0.00015398821990132892 0.000008693568656360828 0.0000023312814009764476
          0.00015398821990132892 0.000008693568656360828 0.0000023312814009764476 0.00015398821990132892 0.000008693568656360828 0.0000023312814009764476
          0.00015398821990132892 0.000008693568656360828 0.0000023312814009764476 0.00015398821990132892 0.000008693568656360828 0.0000023312814009764476
          0.00015398821990132892 0.000008693568656360828 0.0000023312814009764476 0.00015398821990132892 0.000008693568656360828 0.0000023312814009764476
          0.0001547248533000757 0.000008700460635184525 0.000008700460635184467 0.0001547248533000757 0.000008700460635184525 0.000008700460635184467
          0.0001547248533000757 0.000008700460635184525 0.000008700460635184467 0.0001547248533000757 0.000008700460635184525 0.000008700460635184467
          0.0001547248533000757 0.000008700460635184525 0.000008700460635184467 0.0001547248533000757 0.000008700460635184525 0.000008700460635184467
          0.0001547248533000757 0.000008700460635184525 0.000008700460635184467 0.0001547248533000757 0.000008700460635184525 0.000008700460635184467
          0.00015324690445537594 0.0000023294347008164404 0.00000232943470081639 0.00015324690445537594 0.0000023294347008164404 0.00000232943470081639
          0.00015324690445537594 0.0000023294347008164404 0.00000232943470081639 0.00015324690445537594 0.0000023294347008164404 0.00000232943470081639
          0.00015324690445537594 0.0000023294347008164404 0.00000232943470081639 0.00015324690445537594 0.0000023294347008164404 0.00000232943470081639
          0.00015324690445537594 0.0000023294347008164404 0.00000232943470081639 0.00015324690445537594 0.0000023294347008164404 0.00000232943470081639
          0.0001539882199013289 0.000002331281400976505 0.00000869356865636078 0.0001539882199013289 0.000002331281400976505 0.00000869356865636078
          0.0001539882199013289 0.000002331281400976505 0.00000869356865636078 0.0001539882199013289 0.000002331281400976505 0.00000869356865636078
          0.0001539882199013289 0.000002331281400976505 0.00000869356865636078 0.0001539882199013289 0.000002331281400976505 0.00000869356865636078
          0.0001539882199013289 0.000002331281400976505 0.00000869356865636078 0.0001539882199013289 0.000002331281400976505 0.00000869356865636078
          0.000041261019166467225 -6.246649687213242e-7 -0.0000023294347008163926 0.000041261019166467225 -6.246649687213242e-7 -0.0000023294347008163926
          0.000041261019166467225 -6.246649687213242e-7 -0.0000023294347008163926 0.000041261019166467225 -6.246649687213242e-7 -0.0000023294347008163926
          0.000041261019166467225 -6.246649687213242e-7 -0.0000023294347008163926 0.000041261019166467225 -6.246649687213242e-7 -0.0000023294347008163926
          0.000041261019166467225 -6.246649687213242e-7 -0.0000023294347008163926 0.000041261019166467225 -6.246649687213242e-7 -0.0000023294347008163926
          0.00004106238429138741 -6.241701469047735e-7 -6.241701469047866e-7 0.00004106238429138741 -6.241701469047735e-7 -6.241701469047866e-7
          0.00004106238429138741 -6.241701469047735e-7 -6.241701469047866e-7 0.00004106238429138741 -6.241701469047735e-7 -6.241701469047866e-7
          0.00004106238429138741 -6.241701469047735e-7 -6.241701469047866e-7 0.00004106238429138741 -6.241701469047735e-7 -6.241701469047866e-7
          0.00004106238429138741 -6.241701469047735e-7 -6.241701469047866e-7 0.00004106238429138741 -6.241701469047735e-7 -6.241701469047866e-7
          0.00004145839949077921 -0.000002331281400976441 -0.000002331281400976455 0.00004145839949077921 -0.000002331281400976441 -0.000002331281400976455
          0.00004145839949077921 -0.000002331281400976441 -0.000002331281400976455 0.00004145839949077921 -0.000002331281400976441 -0.000002331281400976455
          0.00004145839949077921 -0.000002331281400976441 -0.000002331281400976455 0.00004145839949077921 -0.000002331281400976441 -0.000002331281400976455
          0.00004145839949077921 -0.000002331281400976441 -0.000002331281400976455 0.00004145839949077921 -0.000002331281400976441 -0.000002331281400976455
          0.000041261019166467225 -0.00000232943470081638 -6.246649687213374e-7 0.000041261019166467225 -0.00000232943470081638 -6.246649687213374e-7
          0.000041261019166467225 -0.00000232943470081638 -6.246649687213374e-7 0.000041261019166467225 -0.00000232943470081638 -6.246649687213374e-7
          0.000041261019166467225 -0.00000232943470081638 -6.246649687213374e-7 0.000041261019166467225 -0.00000232943470081638 -6.246649687213374e-7
          0.000041261019166467225 -0.00000232943470081638 -6.246649687213374e-7 0.000041261019166467225 -0.00000232943470081638 -6.246649687213374e-7
          0.0001539882199013289 -0.0000023312814009764057 -0.000008693568656360784 0.0001539882199013289 -0.0000023312814009764057 -0.000008693568656360784
          0.0001539882199013289 -0.0000023312814009764057 -0.000008693568656360784 0.0001539882199013289 -0.0000023312814009764057 -0.000008693568656360784
          0.0001539882199013289 -0.0000023312814009764057 -0.000008693568656360784 0.0001539882199013289 -0.0000023312814009764057 -0.000008693568656360784
          0.0001539882199013289 -0.0000023312814009764057 -0.000008693568656360784 0.0001539882199013289 -0.0000023312814009764057 -0.000008693568656360784
          0.00015324690445537594 -0.000002329434700816345 -0.000002329434700816394 0.00015324690445537594 -0.000002329434700816345 -0.000002329434700816394
          0.00015324690445537594 -0.000002329434700816345 -0.000002329434700816394 0.00015324690445537594 -0.000002329434700816345 -0.000002329434700816394
          0.00015324690445537594 -0.000002329434700816345 -0.000002329434700816394 0.00015324690445537594 -0.000002329434700816345 -0.000002329434700816394
          0.00015324690445537594 -0.000002329434700816345 -0.000002329434700816394 0.00015324690445537594 -0.000002329434700816345 -0.000002329434700816394
          0.0001547248533000757 -0.000008700460635184428 -0.00000870046063518448 0.0001547248533000757 -0.000008700460635184428 -0.00000870046063518448
          0.0001547248533000757 -0.000008700460635184428 -0.00000870046063518448 0.0001547248533000757 -0.000008700460635184428 -0.00000870046063518448
          0.0001547248533000757 -0.000008700460635184428 -0.00000870046063518448 0.0001547248533000757 -0.000008700460635184428 -0.00000870046063518448
          0.0001547248533000757 -0.000008700460635184428 -0.00000870046063518448 0.0001547248533000757 -0.000008700460635184428 -0.00000870046063518448
          0.0001539882199013289 -0.000008693568656360735 -0.0000023312814009764544 0.0001539882199013289 -0.000008693568656360735 -0.0000023312814009764544
          0.0001539882199013289 -0.000008693568656360735 -0.0000023312814009764544 0.0001539882199013289 -0.000008693568656360735 -0.0000023312814009764544
          0.0001539882199013289 -0.000008693568656360735 -0.0000023312814009764544 0.0001539882199013289 -0.000008693568656360735 -0.0000023312814009764544
          0.0001539882199013289 -0.000008693568656360735 -0.0000023312814009764544 0.0001539882199013289 -0.000008693568656360735 -0.0000023312814009764544
          0.00004106238429138741 -6.241701469047733e-7 6.241701469047861e-7 0.00004106238429138741 -6.241701469047733e-7 6.241701469047861e-7
          0.00004106238429138741 -6.241701469047733e-7 6.241701469047861e-7 0.00004106238429138741 -6.241701469047733e-7 6.241701469047861e-7
          0.00004106238429138741 -6.241701469047733e-7 6.241701469047861e-7 0.00004106238429138741 -6.241701469047733e-7 6.241701469047861e-7
          0.00004106238429138741 -6.241701469047733e-7 6.241701469047861e-7 0.00004106238429138741 -6.241701469047733e-7 6.241701469047861e-7
          0.000041261019166467225 -6.246649687213232e-7 0.000002329434700816392 0.000041261019166467225 -6.246649687213232e-7 0.000002329434700816392
          0.000041261019166467225 -6.246649687213232e-7 0.000002329434700816392 0.000041261019166467225 -6.246649687213232e-7 0.000002329434700816392
          0.000041261019166467225 -6.246649687213232e-7 0.000002329434700816392 0.000041261019166467225 -6.246649687213232e-7 0.000002329434700816392
          0.000041261019166467225 -6.246649687213232e-7 0.000002329434700816392 0.000041261019166467225 -6.246649687213232e-7 0.000002329434700816392
          0.00004126101916646722 -0.0000023294347008163794 6.246649687213373e-7 0.00004126101916646722 -0.0000023294347008163794 6.246649687213373e-7
          0.00004126101916646722 -0.0000023294347008163794 6.246649687213373e-7 0.00004126101916646722 -0.0000023294347008163794 6.246649687213373e-7
          0.00004126101916646722 -0.0000023294347008163794 6.246649687213373e-7 0.00004126101916646722 -0.0000023294347008163794 6.246649687213373e-7
          0.00004126101916646722 -0.0000023294347008163794 6.246649687213373e-7 0.00004126101916646722 -0.0000023294347008163794 6.246649687213373e-7
          0.00004145839949077921 -0.00000233128140097644 0.000002331281400976454 0.00004145839949077921 -0.00000233128140097644 0.000002331281400976454
          0.00004145839949077921 -0.00000233128140097644 0.000002331281400976454 0.00004145839949077921 -0.00000233128140097644 0.000002331281400976454
          0.00004145839949077921 -0.00000233128140097644 0.000002331281400976454 0.00004145839949077921 -0.00000233128140097644 0.000002331281400976454
          0.00004145839949077921 -0.00000233128140097644 0.000002331281400976454 0.00004145839949077921 -0.00000233128140097644 0.000002331281400976454
          0.00015324690445537597 -0.0000023294347008163443 0.0000023294347008163917 0.00015324690445537597 -0.0000023294347008163443 0.0000023294347008163917
          0.00015324690445537597 -0.0000023294347008163443 0.0000023294347008163917 0.00015324690445537597 -0.0000023294347008163443 0.0000023294347008163917
          0.00015324690445537597 -0.0000023294347008163443 0.0000023294347008163917 0.00015324690445537597 -0.0000023294347008163443 0.0000023294347008163917
          0.00015324690445537597 -0.0000023294347008163443 0.0000023294347008163917 0.00015324690445537597 -0.0000023294347008163443 0.0000023294347008163917
          0.0001539882199013289 -0.000002331281400976402 0.000008693568656360783 0.0001539882199013289 -0.000002331281400976402 0.000008693568656360783
          0.0001539882199013289 -0.000002331281400976402 0.000008693568656360783 0.0001539882199013289 -0.000002331281400976402 0.000008693568656360783
          0.0001539882199013289 -0.000002331281400976402 0.000008693568656360783 0.0001539882199013289 -0.000002331281400976402 0.000008693568656360783
          0.0001539882199013289 -0.000002331281400976402 0.000008693568656360783 0.0001539882199013289 -0.000002331281400976402 0.000008693568656360783
          0.0001539882199013289 -0.000008693568656360733 0.0000023312814009764544 0.0001539882199013289 -0.000008693568656360733 0.0000023312814009764544
          0.0001539882199013289 -0.000008693568656360733 0.0000023312814009764544 0.0001539882199013289 -0.000008693568656360733 0.0000023312814009764544
          0.0001539882199013289 -0.000008693568656360733 0.0000023312814009764544 0.0001539882199013289 -0.000008693568656360733 0.0000023312814009764544
          0.0001539882199013289 -0.000008693568656360733 0.0000023312814009764544 0.0001539882199013289 -0.000008693568656360733 0.0000023312814009764544
          0.0001547248533000757 -0.000008700460635184425 0.000008700460635184479 0.0001547248533000757 -0.000008700460635184425 0.000008700460635184479
          0.0001547248533000757 -0.000008700460635184425 0.000008700460635184479 0.0001547248533000757 -0.000008700460635184425 0.000008700460635184479
          0.0001547248533000757 -0.000008700460635184425 0.000008700460635184479 0.0001547248533000757 -0.000008700460635184425 0.000008700460635184479
          0.0001547248533000757 -0.000008700460635184425 0.000008700460635184479 0.0001547248533000757 -0.000008700460635184425 0.000008700460635184479
          0.00023921777411109758 0.000010596812293645758 -0.000010596812293645702 0.00023921777411109758 0.000010596812293645758 -0.000010596812293645702
          0.00023921777411109758 0.000010596812293645758 -0.000010596812293645702 0.00023921777411109758 0.000010596812293645758 -0.000010596812293645702
          0.00023921777411109758 0.000010596812293645758 -0.000010596812293645702 0.00023921777411109758 0.000010596812293645758 -0.000010596812293645702
          0.00023921777411109758 0.000010596812293645758 -0.000010596812293645702 0.00023921777411109758 0.000010596812293645758 -0.000010596812293645702
          0.00023921777411109758 0.000010596812293645758 -0.000010596812293645702 0.00023921777411109758 0.000010596812293645758 -0.000010596812293645702
          0.00023921777411109758 0.000010596812293645758 -0.000010596812293645702 0.00023921777411109758 0.000010596812293645758 -0.000010596812293645702
          0.00023847944566199032 0.000010597720674170551 -0.0000028394072964265633 0.00023847944566199032 0.000010597720674170551 -0.0000028394072964265633
          0.00023847944566199032 0.000010597720674170551 -0.0000028394072964265633 0.00023847944566199032 0.000010597720674170551 -0.0000028394072964265633
          0.00023847944566199032 0.000010597720674170551 -0.0000028394072964265633 0.00023847944566199032 0.000010597720674170551 -0.0000028394072964265633
          0.00023847944566199032 0.000010597720674170551 -0.0000028394072964265633 0.00023847944566199032 0.000010597720674170551 -0.0000028394072964265633
          0.00023847944566199032 0.000010597720674170551 -0.0000028394072964265633 0.00023847944566199032 0.000010597720674170551 -0.0000028394072964265633
          0.00023847944566199032 0.000010597720674170551 -0.0000028394072964265633 0.00023847944566199032 0.000010597720674170551 -0.0000028394072964265633
          0.00023847944566199032 0.000002839407296426616 -0.000010597720674170497 0.00023847944566199032 0.000002839407296426616 -0.000010597720674170497
          0.00023847944566199032 0.000002839407296426616 -0.000010597720674170497 0.00023847944566199032 0.000002839407296426616 -0.000010597720674170497
          0.00023847944566199032 0.000002839407296426616 -0.000010597720674170497 0.00023847944566199032 0.000002839407296426616 -0.000010597720674170497
          0.00023847944566199032 0.000002839407296426616 -0.000010597720674170497 0.00023847944566199032 0.000002839407296426616 -0.000010597720674170497
          0.00023847944566199032 0.000002839407296426616 -0.000010597720674170497 0.00023847944566199032 0.000002839407296426616 -0.000010597720674170497
          0.00023847944566199032 0.000002839407296426616 -0.000010597720674170497 0.00023847944566199032 0.000002839407296426616 -0.000010597720674170497
          0.00023773643902451715 0.0000028396506962546532 -0.0000028396506962546 0.00023773643902451715 0.0000028396506962546532 -0.0000028396506962546
          0.00023773643902451715 0.0000028396506962546532 -0.0000028396506962546 0.00023773643902451715 0.0000028396506962546532 -0.0000028396506962546
          0.00023773643902451715 0.0000028396506962546532 -0.0000028396506962546 0.00023773643902451715 0.0000028396506962546532 -0.0000028396506962546
          0.00023773643902451715 0.0000028396506962546532 -0.0000028396506962546 0.00023773643902451715 0.0000028396506962546532 -0.0000028396506962546
          0.00023773643902451715 0.0000028396506962546532 -0.0000028396506962546 0.00023773643902451715 0.0000028396506962546532 -0.0000028396506962546
          0.00023773643902451715 0.0000028396506962546532 -0.0000028396506962546 0.00023773643902451715 0.0000028396506962546532 -0.0000028396506962546
          0.0003567902728374067 0.000009408562139371305 -0.000009408562139371266 0.0003567902728374067 0.000009408562139371305 -0.000009408562139371266
          0.0003567902728374067 0.000009408562139371305 -0.000009408562139371266 0.0003567902728374067 0.000009408562139371305 -0.000009408562139371266
          0.0003567902728374067 0.000009408562139371305 -0.000009408562139371266 0.0003567902728374067 0.000009408562139371305 -0.000009408562139371266
          0.0003567902728374067 0.000009408562139371305 -0.000009408562139371266 0.0003567902728374067 0.000009408562139371305 -0.000009408562139371266
          0.000356586566499028 0.000009435826776617087 -0.00000252101662718257 0.000356586566499028 0.000009435826776617087 -0.00000252101662718257
          0.000356586566499028 0.000009435826776617087 -0.00000252101662718257 0.000356586566499028 0.000009435826776617087 -0.00000252101662718257
          0.000356586566499028 0.000009435826776617087 -0.00000252101662718257 0.000356586566499028 0.000009435826776617087 -0.00000252101662718257
          0.000356586566499028 0.000009435826776617087 -0.00000252101662718257 0.000356586566499028 0.000009435826776617087 -0.00000252101662718257
          0.00035658656649902807 0.0000025210166271826092 -0.000009435826776617045 0.00035658656649902807 0.0000025210166271826092 -0.000009435826776617045
          0.00035658656649902807 0.0000025210166271826092 -0.000009435826776617045 0.00035658656649902807 0.0000025210166271826092 -0.000009435826776617045
          0.00035658656649902807 0.0000025210166271826092 -0.000009435826776617045 0.00035658656649902807 0.0000025210166271826092 -0.000009435826776617045
          0.00035658656649902807 0.0000025210166271826092 -0.000009435826776617045 0.00035658656649902807 0.0000025210166271826092 -0.000009435826776617045
          0.0003563816200112693 0.000002528322164714546 -0.000002528322164714503 0.0003563816200112693 0.000002528322164714546 -0.000002528322164714503
          0.0003563816200112693 0.000002528322164714546 -0.000002528322164714503 0.0003563816200112693 0.000002528322164714546 -0.000002528322164714503
          0.0003563816200112693 0.000002528322164714546 -0.000002528322164714503 0.0003563816200112693 0.000002528322164714546 -0.000002528322164714503
          0.0003563816200112693 0.000002528322164714546 -0.000002528322164714503 0.0003563816200112693 0.000002528322164714546 -0.000002528322164714503
          0.00023847944566199035 0.000010597720674170551 0.000002839407296426553 0.00023847944566199035 0.000010597720674170551 0.000002839407296426553
          0.00023847944566199035 0.000010597720674170551 0.000002839407296426553 0.00023847944566199035 0.000010597720674170551 0.000002839407296426553
          0.00023847944566199035 0.000010597720674170551 0.000002839407296426553 0.00023847944566199035 0.000010597720674170551 0.000002839407296426553
          0.00023847944566199035 0.000010597720674170551 0.000002839407296426553 0.00023847944566199035 0.000010597720674170551 0.000002839407296426553
          0.00023847944566199035 0.000010597720674170551 0.000002839407296426553 0.00023847944566199035 0.000010597720674170551 0.000002839407296426553
          0.00023847944566199035 0.000010597720674170551 0.000002839407296426553 0.00023847944566199035 0.000010597720674170551 0.000002839407296426553
          0.0002392177741110976 0.000010596812293645763 0.000010596812293645694 0.0002392177741110976 0.000010596812293645763 0.000010596812293645694
          0.0002392177741110976 0.000010596812293645763 0.000010596812293645694 0.0002392177741110976 0.000010596812293645763 0.000010596812293645694
          0.0002392177741110976 0.000010596812293645763 0.000010596812293645694 0.0002392177741110976 0.000010596812293645763 0.000010596812293645694
          0.0002392177741110976 0.000010596812293645763 0.000010596812293645694 0.0002392177741110976 0.000010596812293645763 0.000010596812293645694
          0.0002392177741110976 0.000010596812293645763 0.000010596812293645694 0.0002392177741110976 0.000010596812293645763 0.000010596812293645694
          0.0002392177741110976 0.000010596812293645763 0.000010596812293645694 0.0002392177741110976 0.000010596812293645763 0.000010596812293645694
          0.00023773643902451713 0.000002839650696254655 0.0000028396506962545948 0.00023773643902451713 0.000002839650696254655 0.0000028396506962545948
          0.00023773643902451713 0.000002839650696254655 0.0000028396506962545948 0.00023773643902451713 0.000002839650696254655 0.0000028396506962545948
          0.00023773643902451713 0.000002839650696254655 0.0000028396506962545948 0.00023773643902451713 0.000002839650696254655 0.0000028396506962545948
          0.00023773643902451713 0.000002839650696254655 0.0000028396506962545948 0.00023773643902451713 0.000002839650696254655 0.0000028396506962545948
          0.00023773643902451713 0.000002839650696254655 0.0000028396506962545948 0.00023773643902451713 0.000002839650696254655 0.0000028396506962545948
          0.00023773643902451713 0.000002839650696254655 0.0000028396506962545948 0.00023773643902451713 0.000002839650696254655 0.0000028396506962545948
          0.00023847944566199032 0.0000028394072964266213 0.000010597720674170494 0.00023847944566199032 0.0000028394072964266213 0.000010597720674170494
          0.00023847944566199032 0.0000028394072964266213 0.000010597720674170494 0.00023847944566199032 0.0000028394072964266213 0.000010597720674170494
          0.00023847944566199032 0.0000028394072964266213 0.000010597720674170494 0.00023847944566199032 0.0000028394072964266213 0.000010597720674170494
          0.00023847944566199032 0.0000028394072964266213 0.000010597720674170494 0.00023847944566199032 0.0000028394072964266213 0.000010597720674170494
          0.00023847944566199032 0.0000028394072964266213 0.000010597720674170494 0.00023847944566199032 0.0000028394072964266213 0.000010597720674170494
          0.00023847944566199032 0.0000028394072964266213 0.000010597720674170494 0.00023847944566199032 0.0000028394072964266213 0.000010597720674170494
          0.000356586566499028 0.000009435826776617089 0.000002521016627182561 0.000356586566499028 0.000009435826776617089 0.000002521016627182561
          0.000356586566499028 0.000009435826776617089 0.000002521016627182561 0.000356586566499028 0.000009435826776617089 0.000002521016627182561