<?xml version="1.0"?>
<VTKFile type="UnstructuredGrid" version="0.1" byte_order="LittleEndian" header_type="UInt32" compressor="vtkZLibDataCompressor">
  <UnstructuredGrid>
    <Piece NumberOfPoints="1036" NumberOfCells="259">
      <PointData Vectors="displacement">
        <DataArray type="Float64" Name="displacement" NumberOfComponents="3" format="ascii" RangeMin="0.00004206874610446945" RangeMax="0.0007579336768682826">
          0.000042246180371129296 0.0000011599586746243424 -0.0000011599586746243227 0.000042246180371129296 0.0000011599586746243424 -0.0000011599586746243227
          0.000042246180371129296 0.0000011599586746243424 -0.0000011599586746243227 0.000042246180371129296 0.0000011599586746243424 -0.0000011599586746243227
          0.000042246180371129296 0.0000011599586746243424 -0.0000011599586746243227 0.000042246180371129296 0.0000011599586746243424 -0.0000011599586746243227
          0.000042246180371129296 0.0000011599586746243424 -0.0000011599586746243227 0.000042246180371129296 0.0000011599586746243424 -0.0000011599586746243227
          0.0000421563608444421 0.000001159754145105216 -3.1080999011905665e-7 0.0000421563608444421 0.000001159754145105216 -3.1080999011905665e-7
          0.0000421563608444421 0.000001159754145105216 -3.1080999011905665e-7 0.0000421563608444421 0.000001159754145105216 -3.1080999011905665e-7
          0.0000421563608444421 0.000001159754145105216 -3.1080999011905665e-7 0.0000421563608444421 0.000001159754145105216 -3.1080999011905665e-7
          0.0000421563608444421 0.000001159754145105216 -3.1080999011905665e-7 0.0000421563608444421 0.000001159754145105216 -3.1080999011905665e-7
          0.000042156360844442096 3.10809990119076e-7 -0.0000011597541451051984 0.000042156360844442096 3.10809990119076e-7 -0.0000011597541451051984
          0.000042156360844442096 3.10809990119076e-7 -0.0000011597541451051984 0.000042156360844442096 3.10809990119076e-7 -0.0000011597541451051984
          0.000042156360844442096 3.10809990119076e-7 -0.0000011597541451051984 0.000042156360844442096 3.10809990119076e-7 -0.0000011597541451051984
          0.000042156360844442096 3.10809990119076e-7 -0.0000011597541451051984 0.000042156360844442096 3.10809990119076e-7 -0.0000011597541451051984
          0.000042066450542330244 3.107551865995976e-7 -3.1075518659957896e-7 0.000042066450542330244 3.107551865995976e-7 -3.1075518659957896e-7
          0.000042066450542330244 3.107551865995976e-7 -3.1075518659957896e-7 0.000042066450542330244 3.107551865995976e-7 -3.1075518659957896e-7
          0.000042066450542330244 3.107551865995976e-7 -3.1075518659957896e-7 0.000042066450542330244 3.107551865995976e-7 -3.1075518659957896e-7
          0.000042066450542330244 3.107551865995976e-7 -3.1075518659957896e-7 0.000042066450542330244 3.107551865995976e-7 -3.1075518659957896e-7
          0.00015766489157077352 0.000004329024708378301 -0.000004329024708378228 0.00015766489157077352 0.000004329024708378301 -0.000004329024708378228
          0.00015766489157077352 0.000004329024708378301 -0.000004329024708378228 0.00015766489157077352 0.000004329024708378301 -0.000004329024708378228
          0.00015766489157077352 0.000004329024708378301 -0.000004329024708378228 0.00015766489157077352 0.000004329024708378301 -0.000004329024708378228
          0.00015766489157077352 0.000004329024708378301 -0.000004329024708378228 0.00015766489157077352 0.000004329024708378301 -0.000004329024708378228
          0.00015732968053366512 0.0000043282613938212736 -0.0000011599586746243 0.00015732968053366512 0.0000043282613938212736 -0.0000011599586746243
          0.00015732968053366512 0.0000043282613938212736 -0.0000011599586746243 0.00015732968053366512 0.0000043282613938212736 -0.0000011599586746243
          0.00015732968053366512 0.0000043282613938212736 -0.0000011599586746243 0.00015732968053366512 0.0000043282613938212736 -0.0000011599586746243
          0.00015732968053366512 0.0000043282613938212736 -0.0000011599586746243 0.00015732968053366512 0.0000043282613938212736 -0.0000011599586746243
          0.00015732968053366512 0.0000011599586746243725 -0.000004328261393821209 0.00015732968053366512 0.0000011599586746243725 -0.000004328261393821209
          0.00015732968053366512 0.0000011599586746243725 -0.000004328261393821209 0.00015732968053366512 0.0000011599586746243725 -0.000004328261393821209
          0.00015732968053366512 0.0000011599586746243725 -0.000004328261393821209 0.00015732968053366512 0.0000011599586746243725 -0.000004328261393821209
          0.00015732968053366512 0.0000011599586746243725 -0.000004328261393821209 0.00015732968053366512 0.0000011599586746243725 -0.000004328261393821209
          0.0001569941307180598 0.0000011597541451052456 -0.0000011597541451051758 0.0001569941307180598 0.0000011597541451052456 -0.0000011597541451051758
          0.0001569941307180598 0.0000011597541451052456 -0.0000011597541451051758 0.0001569941307180598 0.0000011597541451052456 -0.0000011597541451051758
          0.0001569941307180598 0.0000011597541451052456 -0.0000011597541451051758 0.0001569941307180598 0.0000011597541451052456 -0.0000011597541451051758
          0.0001569941307180598 0.0000011597541451052456 -0.0000011597541451051758 0.0001569941307180598 0.0000011597541451052456 -0.0000011597541451051758
          0.000042156360844442096 0.000001159754145105216 3.108099901190731e-7 0.000042156360844442096 0.000001159754145105216 3.108099901190731e-7
          0.000042156360844442096 0.000001159754145105216 3.108099901190731e-7 0.000042156360844442096 0.000001159754145105216 3.108099901190731e-7
          0.000042156360844442096 0.000001159754145105216 3.108099901190731e-7 0.000042156360844442096 0.000001159754145105216 3.108099901190731e-7
          0.000042156360844442096 0.000001159754145105216 3.108099901190731e-7 0.000042156360844442096 0.000001159754145105216 3.108099901190731e-7
          0.000042246180371129296 0.0000011599586746243422 0.0000011599586746243388 0.000042246180371129296 0.0000011599586746243422 0.0000011599586746243388
          0.000042246180371129296 0.0000011599586746243422 0.0000011599586746243388 0.000042246180371129296 0.0000011599586746243422 0.0000011599586746243388
          0.000042246180371129296 0.0000011599586746243422 0.0000011599586746243388 0.000042246180371129296 0.0000011599586746243422 0.0000011599586746243388
          0.000042246180371129296 0.0000011599586746243422 0.0000011599586746243388 0.000042246180371129296 0.0000011599586746243422 0.0000011599586746243388
          0.000042066450542330244 3.107551865995975e-7 3.1075518659959527e-7 0.000042066450542330244 3.107551865995975e-7 3.1075518659959527e-7
          0.000042066450542330244 3.107551865995975e-7 3.1075518659959527e-7 0.000042066450542330244 3.107551865995975e-7 3.1075518659959527e-7
          0.000042066450542330244 3.107551865995975e-7 3.1075518659959527e-7 0.000042066450542330244 3.107551865995975e-7 3.1075518659959527e-7
          0.000042066450542330244 3.107551865995975e-7 3.1075518659959527e-7 0.000042066450542330244 3.107551865995975e-7 3.1075518659959527e-7
          0.0000421563608444421 3.1080999011907566e-7 0.0000011597541451052139 0.0000421563608444421 3.1080999011907566e-7 0.0000011597541451052139
          0.0000421563608444421 3.1080999011907566e-7 0.0000011597541451052139 0.0000421563608444421 3.1080999011907566e-7 0.0000011597541451052139
          0.0000421563608444421 3.1080999011907566e-7 0.0000011597541451052139 0.0000421563608444421 3.1080999011907566e-7 0.0000011597541451052139
          0.0000421563608444421 3.1080999011907566e-7 0.0000011597541451052139 0.0000421563608444421 3.1080999011907566e-7 0.0000011597541451052139
          0.00015732968053366512 0.0000043282613938212736 0.0000011599586746243615 0.00015732968053366512 0.0000043282613938212736 0.0000011599586746243615
          0.00015732968053366512 0.0000043282613938212736 0.0000011599586746243615 0.00015732968053366512 0.0000043282613938212736 0.0000011599586746243615
          0.00015732968053366512 0.0000043282613938212736 0.0000011599586746243615 0.00015732968053366512 0.0000043282613938212736 0.0000011599586746243615
          0.00015732968053366512 0.0000043282613938212736 0.0000011599586746243615 0.00015732968053366512 0.0000043282613938212736 0.0000011599586746243615
          0.00015766489157077355 0.000004329024708378301 0.000004329024708378287 0.00015766489157077355 0.000004329024708378301 0.000004329024708378287
          0.00015766489157077355 0.000004329024708378301 0.000004329024708378287 0.00015766489157077355 0.000004329024708378301 0.000004329024708378287
          0.00015766489157077355 0.000004329024708378301 0.000004329024708378287 0.00015766489157077355 0.000004329024708378301 0.000004329024708378287
          0.00015766489157077355 0.000004329024708378301 0.000004329024708378287 0.00015766489157077355 0.000004329024708378301 0.000004329024708378287
          0.00015699413071805984 0.0000011597541451052454 0.0000011597541451052367 0.00015699413071805984 0.0000011597541451052454 0.0000011597541451052367
          0.00015699413071805984 0.0000011597541451052454 0.0000011597541451052367 0.00015699413071805984 0.0000011597541451052454 0.0000011597541451052367
          0.00015699413071805984 0.0000011597541451052454 0.0000011597541451052367 0.00015699413071805984 0.0000011597541451052454 0.0000011597541451052367
          0.00015699413071805984 0.0000011597541451052454 0.0000011597541451052367 0.00015699413071805984 0.0000011597541451052454 0.0000011597541451052367
          0.00015732968053366512 0.0000011599586746243714 0.000004328261393821266 0.00015732968053366512 0.0000011599586746243714 0.000004328261393821266
          0.00015732968053366512 0.0000011599586746243714 0.000004328261393821266 0.00015732968053366512 0.0000011599586746243714 0.000004328261393821266
          0.00015732968053366512 0.0000011599586746243714 0.000004328261393821266 0.00015732968053366512 0.0000011599586746243714 0.000004328261393821266
          0.00015732968053366512 0.0000011599586746243714 0.000004328261393821266 0.00015732968053366512 0.0000011599586746243714 0.000004328261393821266
          0.000042156360844442096 -3.1080999011905395e-7 -0.0000011597541451051988 0.000042156360844442096 -3.1080999011905395e-7 -0.0000011597541451051988
          0.000042156360844442096 -3.1080999011905395e-7 -0.0000011597541451051988 0.000042156360844442096 -3.1080999011905395e-7 -0.0000011597541451051988
          0.000042156360844442096 -3.1080999011905395e-7 -0.0000011597541451051988 0.000042156360844442096 -3.1080999011905395e-7 -0.0000011597541451051988
          0.000042156360844442096 -3.1080999011905395e-7 -0.0000011597541451051988 0.000042156360844442096 -3.1080999011905395e-7 -0.0000011597541451051988
          0.000042066450542330244 -3.107551865995759e-7 -3.107551865995792e-7 0.000042066450542330244 -3.107551865995759e-7 -3.107551865995792e-7
          0.000042066450542330244 -3.107551865995759e-7 -3.107551865995792e-7 0.000042066450542330244 -3.107551865995759e-7 -3.107551865995792e-7
          0.000042066450542330244 -3.107551865995759e-7 -3.107551865995792e-7 0.000042066450542330244 -3.107551865995759e-7 -3.107551865995792e-7
          0.000042066450542330244 -3.107551865995759e-7 -3.107551865995792e-7 0.000042066450542330244 -3.107551865995759e-7 -3.107551865995792e-7
          0.00004224618037112929 -0.0000011599586746243204 -0.000001159958674624324 0.00004224618037112929 -0.0000011599586746243204 -0.000001159958674624324
          0.00004224618037112929 -0.0000011599586746243204 -0.000001159958674624324 0.00004224618037112929 -0.0000011599586746243204 -0.000001159958674624324
          0.00004224618037112929 -0.0000011599586746243204 -0.000001159958674624324 0.00004224618037112929 -0.0000011599586746243204 -0.000001159958674624324
          0.00004224618037112929 -0.0000011599586746243204 -0.000001159958674624324 0.00004224618037112929 -0.0000011599586746243204 -0.000001159958674624324
          0.000042156360844442096 -0.0000011597541451051942 -3.1080999011905755e-7 0.000042156360844442096 -0.0000011597541451051942 -3.1080999011905755e-7
          0.000042156360844442096 -0.0000011597541451051942 -3.1080999011905755e-7 0.000042156360844442096 -0.0000011597541451051942 -3.1080999011905755e-7
          0.000042156360844442096 -0.0000011597541451051942 -3.1080999011905755e-7 0.000042156360844442096 -0.0000011597541451051942 -3.1080999011905755e-7
          0.000042156360844442096 -0.0000011597541451051942 -3.1080999011905755e-7 0.000042156360844442096 -0.0000011597541451051942 -3.1080999011905755e-7
          0.0001573296805336651 -0.0000011599586746242905 -0.000004328261393821211 0.0001573296805336651 -0.0000011599586746242905 -0.000004328261393821211
          0.0001573296805336651 -0.0000011599586746242905 -0.000004328261393821211 0.0001573296805336651 -0.0000011599586746242905 -0.000004328261393821211
          0.0001573296805336651 -0.0000011599586746242905 -0.000004328261393821211 0.0001573296805336651 -0.0000011599586746242905 -0.000004328261393821211
          0.0001573296805336651 -0.0000011599586746242905 -0.000004328261393821211 0.0001573296805336651 -0.0000011599586746242905 -0.000004328261393821211
          0.00015699413071805984 -0.0000011597541451051645 -0.0000011597541451051768 0.00015699413071805984 -0.0000011597541451051645 -0.0000011597541451051768
          0.00015699413071805984 -0.0000011597541451051645 -0.0000011597541451051768 0.00015699413071805984 -0.0000011597541451051645 -0.0000011597541451051768
          0.00015699413071805984 -0.0000011597541451051645 -0.0000011597541451051768 0.00015699413071805984 -0.0000011597541451051645 -0.0000011597541451051768
          0.00015699413071805984 -0.0000011597541451051645 -0.0000011597541451051768 0.00015699413071805984 -0.0000011597541451051645 -0.0000011597541451051768
          0.00015766489157077352 -0.0000043290247083782195 -0.000004329024708378233 0.00015766489157077352 -0.0000043290247083782195 -0.000004329024708378233
          0.00015766489157077352 -0.0000043290247083782195 -0.000004329024708378233 0.00015766489157077352 -0.0000043290247083782195 -0.000004329024708378233
          0.00015766489157077352 -0.0000043290247083782195 -0.000004329024708378233 0.00015766489157077352 -0.0000043290247083782195 -0.000004329024708378233
          0.00015766489157077352 -0.0000043290247083782195 -0.000004329024708378233 0.00015766489157077352 -0.0000043290247083782195 -0.000004329024708378233
          0.00015732968053366512 -0.000004328261393821192 -0.0000011599586746243036 0.00015732968053366512 -0.000004328261393821192 -0.0000011599586746243036
          0.00015732968053366512 -0.000004328261393821192 -0.0000011599586746243036 0.00015732968053366512 -0.000004328261393821192 -0.0000011599586746243036
          0.00015732968053366512 -0.000004328261393821192 -0.0000011599586746243036 0.00015732968053366512 -0.000004328261393821192 -0.0000011599586746243036
          0.00015732968053366512 -0.000004328261393821192 -0.0000011599586746243036 0.00015732968053366512 -0.000004328261393821192 -0.0000011599586746243036
          0.000042066450542330244 -3.10755186599576e-7 3.107551865995951e-7 0.000042066450542330244 -3.10755186599576e-7 3.107551865995951e-7
          0.000042066450542330244 -3.10755186599576e-7 3.107551865995951e-7 0.000042066450542330244 -3.10755186599576e-7 3.107551865995951e-7
          0.000042066450542330244 -3.10755186599576e-7 3.107551865995951e-7 0.000042066450542330244 -3.10755186599576e-7 3.107551865995951e-7
          0.000042066450542330244 -3.10755186599576e-7 3.107551865995951e-7 0.000042066450542330244 -3.10755186599576e-7 3.107551865995951e-7
          0.000042156360844442096 -3.108099901190544e-7 0.0000011597541451052139 0.000042156360844442096 -3.108099901190544e-7 0.0000011597541451052139
          0.000042156360844442096 -3.108099901190544e-7 0.0000011597541451052139 0.000042156360844442096 -3.108099901190544e-7 0.0000011597541451052139
          0.000042156360844442096 -3.108099901190544e-7 0.0000011597541451052139 0.000042156360844442096 -3.108099901190544e-7 0.0000011597541451052139
          0.000042156360844442096 -3.108099901190544e-7 0.0000011597541451052139 0.000042156360844442096 -3.108099901190544e-7 0.0000011597541451052139
          0.000042156360844442096 -0.0000011597541451051944 3.108099901190726e-7 0.000042156360844442096 -0.0000011597541451051944 3.108099901190726e-7
          0.000042156360844442096 -0.0000011597541451051944 3.108099901190726e-7 0.000042156360844442096 -0.0000011597541451051944 3.108099901190726e-7
          0.000042156360844442096 -0.0000011597541451051944 3.108099901190726e-7 0.000042156360844442096 -0.0000011597541451051944 3.108099901190726e-7
          0.000042156360844442096 -0.0000011597541451051944 3.108099901190726e-7 0.000042156360844442096 -0.0000011597541451051944 3.108099901190726e-7
          0.0000422461803711293 -0.0000011599586746243208 0.0000011599586746243388 0.0000422461803711293 -0.0000011599586746243208 0.0000011599586746243388
          0.0000422461803711293 -0.0000011599586746243208 0.0000011599586746243388 0.0000422461803711293 -0.0000011599586746243208 0.0000011599586746243388
          0.0000422461803711293 -0.0000011599586746243208 0.0000011599586746243388 0.0000422461803711293 -0.0000011599586746243208 0.0000011599586746243388
          0.0000422461803711293 -0.0000011599586746243208 0.0000011599586746243388 0.0000422461803711293 -0.0000011599586746243208 0.0000011599586746243388
          0.00015699413071805984 -0.000001159754145105165 0.0000011597541451052361 0.00015699413071805984 -0.000001159754145105165 0.0000011597541451052361
          0.00015699413071805984 -0.000001159754145105165 0.0000011597541451052361 0.00015699413071805984 -0.000001159754145105165 0.0000011597541451052361
          0.00015699413071805984 -0.000001159754145105165 0.0000011597541451052361 0.00015699413071805984 -0.000001159754145105165 0.0000011597541451052361
          0.00015699413071805984 -0.000001159754145105165 0.0000011597541451052361 0.00015699413071805984 -0.000001159754145105165 0.0000011597541451052361
          0.00015732968053366514 -0.0000011599586746242918 0.000004328261393821266 0.00015732968053366514 -0.0000011599586746242918 0.000004328261393821266
          0.00015732968053366514 -0.0000011599586746242918 0.000004328261393821266 0.00015732968053366514 -0.0000011599586746242918 0.000004328261393821266
          0.00015732968053366514 -0.0000011599586746242918 0.000004328261393821266 0.00015732968053366514 -0.0000011599586746242918 0.000004328261393821266
          0.00015732968053366514 -0.0000011599586746242918 0.000004328261393821266 0.00015732968053366514 -0.0000011599586746242918 0.000004328261393821266
          0.00015732968053366514 -0.000004328261393821193 0.0000011599586746243596 0.00015732968053366514 -0.000004328261393821193 0.0000011599586746243596
          0.00015732968053366514 -0.000004328261393821193 0.0000011599586746243596 0.00015732968053366514 -0.000004328261393821193 0.0000011599586746243596
          0.00015732968053366514 -0.000004328261393821193 0.0000011599586746243596 0.00015732968053366514 -0.000004328261393821193 0.0000011599586746243596
          0.00015732968053366514 -0.000004328261393821193 0.0000011599586746243596 0.00015732968053366514 -0.000004328261393821193 0.0000011599586746243596
          0.00015766489157077355 -0.00000432902470837822 0.000004329024708378288 0.00015766489157077355 -0.00000432902470837822 0.000004329024708378288
          0.00015766489157077355 -0.00000432902470837822 0.000004329024708378288 0.00015766489157077355 -0.00000432902470837822 0.000004329024708378288
          0.00015766489157077355 -0.00000432902470837822 0.000004329024708378288 0.00015766489157077355 -0.00000432902470837822 0.000004329024708378288
          0.00015766489157077355 -0.00000432902470837822 0.000004329024708378288 0.00015766489157077355 -0.00000432902470837822 0.000004329024708378288
          0.0002421948377328484 0.000005217875350938898 -0.000005217875350938802 0.0002421948377328484 0.000005217875350938898 -0.000005217875350938802
          0.0002421948377328484 0.000005217875350938898 -0.000005217875350938802 0.0002421948377328484 0.000005217875350938898 -0.000005217875350938802
          0.0002421948377328484 0.000005217875350938898 -0.000005217875350938802 0.0002421948377328484 0.000005217875350938898 -0.000005217875350938802
          0.0002421948377328484 0.000005217875350938898 -0.000005217875350938802 0.0002421948377328484 0.000005217875350938898 -0.000005217875350938802
          0.00024185962669573998 0.0000052179745418841285 -0.000001398125486490283 0.00024185962669573998 0.0000052179745418841285 -0.000001398125486490283
          0.00024185962669573998 0.0000052179745418841285 -0.000001398125486490283 0.00024185962669573998 0.0000052179745418841285 -0.000001398125486490283
          0.00024185962669573998 0.0000052179745418841285 -0.000001398125486490283 0.00024185962669573998 0.0000052179745418841285 -0.000001398125486490283
          0.00024185962669573998 0.0000052179745418841285 -0.000001398125486490283 0.00024185962669573998 0.0000052179745418841285 -0.000001398125486490283
          0.00024185962669573998 0.0000013981254864903788 -0.000005217974541884035 0.00024185962669573998 0.0000013981254864903788 -0.000005217974541884035
          0.00024185962669573998 0.0000013981254864903788 -0.000005217974541884035 0.00024185962669573998 0.0000013981254864903788 -0.000005217974541884035
          0.00024185962669573998 0.0000013981254864903788 -0.000005217974541884035 0.00024185962669573998 0.0000013981254864903788 -0.000005217974541884035
          0.00024185962669573998 0.0000013981254864903788 -0.000005217974541884035 0.00024185962669573998 0.0000013981254864903788 -0.000005217974541884035
          0.0002415240768801347 0.00000139815206462405 -0.000001398152064623953 0.0002415240768801347 0.00000139815206462405 -0.000001398152064623953
          0.0002415240768801347 0.00000139815206462405 -0.000001398152064623953 0.0002415240768801347 0.00000139815206462405 -0.000001398152064623953
          0.0002415240768801347 0.00000139815206462405 -0.000001398152064623953 0.0002415240768801347 0.00000139815206462405 -0.000001398152064623953
          0.0002415240768801347 0.00000139815206462405 -0.000001398152064623953 0.0002415240768801347 0.00000139815206462405 -0.000001398152064623953
          0.0003577162342090545 0.000004477194433000732 -0.000004477194433000632 0.0003577162342090545 0.000004477194433000732 -0.000004477194433000632
          0.0003577162342090545 0.000004477194433000732 -0.000004477194433000632 0.0003577162342090545 0.000004477194433000732 -0.000004477194433000632
          0.0003577162342090545 0.000004477194433000732 -0.000004477194433000632 0.0003577162342090545 0.000004477194433000732 -0.000004477194433000632
          0.0003577162342090545 0.000004477194433000732 -0.000004477194433000632 0.0003577162342090545 0.000004477194433000732 -0.000004477194433000632
          0.00035762641468236727 0.000004480208817837839 -0.0000011996606326796021 0.00035762641468236727 0.000004480208817837839 -0.0000011996606326796021
          0.00035762641468236727 0.000004480208817837839 -0.0000011996606326796021 0.00035762641468236727 0.000004480208817837839 -0.0000011996606326796021
          0.00035762641468236727 0.000004480208817837839 -0.0000011996606326796021 0.00035762641468236727 0.000004480208817837839 -0.0000011996606326796021
          0.00035762641468236727 0.000004480208817837839 -0.0000011996606326796021 0.00035762641468236727 0.000004480208817837839 -0.0000011996606326796021
          0.0003576264146823673 0.0000011996606326797101 -0.000004480208817837721 0.0003576264146823673 0.0000011996606326797101 -0.000004480208817837721
          0.0003576264146823673 0.0000011996606326797101 -0.000004480208817837721 0.0003576264146823673 0.0000011996606326797101 -0.000004480208817837721
          0.0003576264146823673 0.0000011996606326797101 -0.000004480208817837721 0.0003576264146823673 0.0000011996606326797101 -0.000004480208817837721
          0.0003576264146823673 0.0000011996606326797101 -0.000004480208817837721 0.0003576264146823673 0.0000011996606326797101 -0.000004480208817837721
          0.00035753650438025543 0.000001200468334662493 -0.0000012004683346623718 0.00035753650438025543 0.000001200468334662493 -0.0000012004683346623718
          0.00035753650438025543 0.000001200468334662493 -0.0000012004683346623718 0.00035753650438025543 0.000001200468334662493 -0.0000012004683346623718
          0.00035753650438025543 0.000001200468334662493 -0.0000012004683346623718 0.00035753650438025543 0.000001200468334662493 -0.0000012004683346623718
          0.00035753650438025543 0.000001200468334662493 -0.0000012004683346623718 0.00035753650438025543 0.000001200468334662493 -0.0000012004683346623718
          0.00024185962669573998 0.000005217974541884129 0.0000013981254864903653 0.00024185962669573998 0.000005217974541884129 0.0000013981254864903653
          0.00024185962669573998 0.000005217974541884129 0.0000013981254864903653 0.00024185962669573998 0.000005217974541884129 0.0000013981254864903653
          0.00024185962669573998 0.000005217974541884129 0.0000013981254864903653 0.00024185962669573998 0.000005217974541884129 0.0000013981254864903653
          0.00024185962669573998 0.000005217974541884129 0.0000013981254864903653 0.00024185962669573998 0.000005217974541884129 0.0000013981254864903653
          0.00024219483773284842 0.000005217875350938903 0.000005217875350938884 0.00024219483773284842 0.000005217875350938903 0.000005217875350938884
          0.00024219483773284842 0.000005217875350938903 0.000005217875350938884 0.00024219483773284842 0.000005217875350938903 0.000005217875350938884
          0.00024219483773284842 0.000005217875350938903 0.000005217875350938884 0.00024219483773284842 0.000005217875350938903 0.000005217875350938884
          0.00024219483773284842 0.000005217875350938903 0.000005217875350938884 0.00024219483773284842 0.000005217875350938903 0.000005217875350938884
          0.0002415240768801347 0.0000013981520646240513 0.0000013981520646240392 0.0002415240768801347 0.0000013981520646240513 0.0000013981520646240392
          0.0002415240768801347 0.0000013981520646240513 0.0000013981520646240392 0.0002415240768801347 0.0000013981520646240513 0.0000013981520646240392
          0.0002415240768801347 0.0000013981520646240513 0.0000013981520646240392 0.0002415240768801347 0.0000013981520646240513 0.0000013981520646240392
          0.0002415240768801347 0.0000013981520646240513 0.0000013981520646240392 0.0002415240768801347 0.0000013981520646240513 0.0000013981520646240392
          0.00024185962669573998 0.0000013981254864903827 0.000005217974541884119 0.00024185962669573998 0.0000013981254864903827 0.000005217974541884119
          0.00024185962669573998 0.0000013981254864903827 0.000005217974541884119 0.00024185962669573998 0.0000013981254864903827 0.000005217974541884119
          0.00024185962669573998 0.0000013981254864903827 0.000005217974541884119 0.00024185962669573998 0.0000013981254864903827 0.000005217974541884119
          0.00024185962669573998 0.0000013981254864903827 0.000005217974541884119 0.00024185962669573998 0.0000013981254864903827 0.000005217974541884119
          0.0003576264146823672 0.000004480208817837844 0.0000011996606326796985 0.0003576264146823672 0.000004480208817837844 0.0000011996606326796985
          0.0003576264146823672 0.000004480208817837844 0.0000011996606326796985 0.0003576264146823672 0.000004480208817837844 0.0000011996606326796985
          0.0003576264146823672 0.000004480208817837844 0.0000011996606326796985 0.0003576264146823672 0.000004480208817837844 0.0000011996606326796985
          0.0003576264146823672 0.000004480208817837844 0.0000011996606326796985 0.0003576264146823672 0.000004480208817837844 0.0000011996606326796985
          0.00035771623420905444 0.000004477194433000752 0.000004477194433000726 0.00035771623420905444 0.000004477194433000752 0.000004477194433000726
          0.00035771623420905444 0.000004477194433000752 0.000004477194433000726 0.00035771623420905444 0.000004477194433000752 0.000004477194433000726
          0.00035771623420905444 0.000004477194433000752 0.000004477194433000726 0.00035771623420905444 0.000004477194433000752 0.000004477194433000726
          0.00035771623420905444 0.000004477194433000752 0.000004477194433000726 0.00035771623420905444 0.000004477194433000752 0.000004477194433000726
          0.0003575365043802555 0.0000012004683346624976 0.0000012004683346624821 0.0003575365043802555 0.0000012004683346624976 0.0000012004683346624821
          0.0003575365043802555 0.0000012004683346624976 0.0000012004683346624821 0.0003575365043802555 0.0000012004683346624976 0.0000012004683346624821
          0.0003575365043802555 0.0000012004683346624976 0.0000012004683346624821 0.0003575365043802555 0.0000012004683346624976 0.0000012004683346624821
          0.0003575365043802555 0.0000012004683346624976 0.0000012004683346624821 0.0003575365043802555 0.0000012004683346624976 0.0000012004683346624821
          0.0003575365043802555 0.0000012004683346624976 0.0000012004683346624821 0.0003575365043802555 0.0000012004683346624976 0.0000012004683346624821
          0.0003575365043802555 0.0000012004683346624976 0.0000012004683346624821 0.0003575365043802555 0.0000012004683346624976 0.0000012004683346624821
          0.0003576264146823673 0.0000011996606326797275 0.00000448020881783783 0.0003576264146823673 0.0000011996606326797275 0.00000448020881783783
          0.0003576264146823673 0.0000011996606326797275 0.00000448020881783783 0.0003576264146823673 0.0000011996606326797275 0.00000448020881783783