<?xml version="1.0"?>
<VTKFile type="UnstructuredGrid" version="0.1" byte_order="LittleEndian" header_type="UInt32" compressor="vtkZLibDataCompressor">
  <UnstructuredGrid>
    <Piece NumberOfPoints="640" NumberOfCells="160">
      <PointData Vectors="displacement">
        <DataArray type="Float64" Name="displacement" NumberOfComponents="3" format="ascii" RangeMin="0.00004105885483541597" RangeMax="0.0007589050699316318">
          0.0000414468179532882 0.0000023380120941646725 -0.0000023380120941646657 0.0000414468179532882 0.0000023380120941646725 -0.0000023380120941646657
          0.0000414468179532882 0.0000023380120941646725 -0.0000023380120941646657 0.0000414468179532882 0.0000023380120941646725 -0.0000023380120941646657
          0.0000414468179532882 0.0000023380120941646725 -0.0000023380120941646657 0.0000414468179532882 0.0000023380120941646725 -0.0000023380120941646657
          0.0000414468179532882 0.0000023380120941646725 -0.0000023380120941646657 0.0000414468179532882 0.0000023380120941646725 -0.0000023380120941646657
          0.00004124903826273844 0.000002330650068553459 -6.264684525256222e-7 0.00004124903826273844 0.000002330650068553459 -6.264684525256222e-7
          0.00004124903826273844 0.000002330650068553459 -6.264684525256222e-7 0.00004124903826273844 0.000002330650068553459 -6.264684525256222e-7
          0.00004124903826273844 0.000002330650068553459 -6.264684525256222e-7 0.00004124903826273844 0.000002330650068553459 -6.264684525256222e-7
          0.00004124903826273844 0.000002330650068553459 -6.264684525256222e-7 0.00004124903826273844 0.000002330650068553459 -6.264684525256222e-7
          0.00004124903826273845 6.264684525256285e-7 -0.0000023306500685534523 0.00004124903826273845 6.264684525256285e-7 -0.0000023306500685534523
          0.00004124903826273845 6.264684525256285e-7 -0.0000023306500685534523 0.00004124903826273845 6.264684525256285e-7 -0.0000023306500685534523
          0.00004124903826273845 6.264684525256285e-7 -0.0000023306500685534523 0.00004124903826273845 6.264684525256285e-7 -0.0000023306500685534523
          0.00004124903826273845 6.264684525256285e-7 -0.0000023306500685534523 0.00004124903826273845 6.264684525256285e-7 -0.0000023306500685534523
          0.00004104935529795885 6.244958037084466e-7 -6.244958037084403e-7 0.00004104935529795885 6.244958037084466e-7 -6.244958037084403e-7
          0.00004104935529795885 6.244958037084466e-7 -6.244958037084403e-7 0.00004104935529795885 6.244958037084466e-7 -6.244958037084403e-7
          0.00004104935529795885 6.244958037084466e-7 -6.244958037084403e-7 0.00004104935529795885 6.244958037084466e-7 -6.244958037084403e-7
          0.00004104935529795885 6.244958037084466e-7 -6.244958037084403e-7 0.00004104935529795885 6.244958037084466e-7 -6.244958037084403e-7
          0.00015468163041372946 0.000008725579924133067 -0.000008725579924133041 0.00015468163041372946 0.000008725579924133067 -0.000008725579924133041
          0.00015468163041372946 0.000008725579924133067 -0.000008725579924133041 0.00015468163041372946 0.000008725579924133067 -0.000008725579924133041
          0.0001539435065598925 0.000008698104470505394 -0.000002338012094164673 0.0001539435065598925 0.000008698104470505394 -0.000002338012094164673
          0.0001539435065598925 0.000008698104470505394 -0.000002338012094164673 0.0001539435065598925 0.000008698104470505394 -0.000002338012094164673
          0.0001539435065598925 0.000002338012094164697 -0.00000869810447050537 0.0001539435065598925 0.000002338012094164697 -0.00000869810447050537
          0.0001539435065598925 0.000002338012094164697 -0.00000869810447050537 0.0001539435065598925 0.000002338012094164697 -0.00000869810447050537
          0.00015319827958992907 0.0000023306500685534836 -0.0000023306500685534595 0.00015319827958992907 0.0000023306500685534836 -0.0000023306500685534595
          0.00015319827958992907 0.0000023306500685534836 -0.0000023306500685534595 0.00015319827958992907 0.0000023306500685534836 -0.0000023306500685534595
          0.00004124903826273844 0.0000023306500685534595 6.264684525256164e-7 0.00004124903826273844 0.0000023306500685534595 6.264684525256164e-7
          0.00004124903826273844 0.0000023306500685534595 6.264684525256164e-7 0.00004124903826273844 0.0000023306500685534595 6.264684525256164e-7
          0.00004124903826273844 0.0000023306500685534595 6.264684525256164e-7 0.00004124903826273844 0.0000023306500685534595 6.264684525256164e-7
          0.00004124903826273844 0.0000023306500685534595 6.264684525256164e-7 0.00004124903826273844 0.0000023306500685534595 6.264684525256164e-7
          0.00004144681795328819 0.0000023380120941646733 0.000002338012094164659 0.00004144681795328819 0.0000023380120941646733 0.000002338012094164659
          0.00004144681795328819 0.0000023380120941646733 0.000002338012094164659 0.00004144681795328819 0.0000023380120941646733 0.000002338012094164659
          0.00004144681795328819 0.0000023380120941646733 0.000002338012094164659 0.00004144681795328819 0.0000023380120941646733 0.000002338012094164659
          0.00004144681795328819 0.0000023380120941646733 0.000002338012094164659 0.00004144681795328819 0.0000023380120941646733 0.000002338012094164659
          0.000041049355297958846 6.244958037084469e-7 6.24495803708435e-7 0.000041049355297958846 6.244958037084469e-7 6.24495803708435e-7
          0.000041049355297958846 6.244958037084469e-7 6.24495803708435e-7 0.000041049355297958846 6.244958037084469e-7 6.24495803708435e-7
          0.000041049355297958846 6.244958037084469e-7 6.24495803708435e-7 0.000041049355297958846 6.244958037084469e-7 6.24495803708435e-7
          0.000041049355297958846 6.244958037084469e-7 6.24495803708435e-7 0.000041049355297958846 6.244958037084469e-7 6.24495803708435e-7
          0.00004124903826273844 6.264684525256294e-7 0.0000023306500685534468 0.00004124903826273844 6.264684525256294e-7 0.0000023306500685534468
          0.00004124903826273844 6.264684525256294e-7 0.0000023306500685534468 0.00004124903826273844 6.264684525256294e-7 0.0000023306500685534468
          0.00004124903826273844 6.264684525256294e-7 0.0000023306500685534468 0.00004124903826273844 6.264684525256294e-7 0.0000023306500685534468
          0.00004124903826273844 6.264684525256294e-7 0.0000023306500685534468 0.00004124903826273844 6.264684525256294e-7 0.0000023306500685534468
          0.0001539435065598925 0.000008698104470505396 0.000002338012094164652 0.0001539435065598925 0.000008698104470505396 0.000002338012094164652
          0.0001539435065598925 0.000008698104470505396 0.000002338012094164652 0.0001539435065598925 0.000008698104470505396 0.000002338012094164652
          0.00015468163041372943 0.00000872557992413307 0.000008725579924133018 0.00015468163041372943 0.00000872557992413307 0.000008725579924133018
          0.00015468163041372943 0.00000872557992413307 0.000008725579924133018 0.00015468163041372943 0.00000872557992413307 0.000008725579924133018
          0.00015319827958992907 0.000002330650068553485 0.0000023306500685534396 0.00015319827958992907 0.000002330650068553485 0.0000023306500685534396
          0.00015319827958992907 0.000002330650068553485 0.0000023306500685534396 0.00015319827958992907 0.000002330650068553485 0.0000023306500685534396
          0.0001539435065598925 0.0000023380120941647004 0.00000869810447050535 0.0001539435065598925 0.0000023380120941647004 0.00000869810447050535
          0.0001539435065598925 0.0000023380120941647004 0.00000869810447050535 0.0001539435065598925 0.0000023380120941647004 0.00000869810447050535
          0.00004124903826273844 -6.264684525256106e-7 -0.0000023306500685534523 0.00004124903826273844 -6.264684525256106e-7 -0.0000023306500685534523
          0.00004124903826273844 -6.264684525256106e-7 -0.0000023306500685534523 0.00004124903826273844 -6.264684525256106e-7 -0.0000023306500685534523
          0.00004124903826273844 -6.264684525256106e-7 -0.0000023306500685534523 0.00004124903826273844 -6.264684525256106e-7 -0.0000023306500685534523
          0.00004124903826273844 -6.264684525256106e-7 -0.0000023306500685534523 0.00004124903826273844 -6.264684525256106e-7 -0.0000023306500685534523
          0.000041049355297958846 -6.24495803708429e-7 -6.244958037084401e-7 0.000041049355297958846 -6.24495803708429e-7 -6.244958037084401e-7
          0.000041049355297958846 -6.24495803708429e-7 -6.244958037084401e-7 0.000041049355297958846 -6.24495803708429e-7 -6.244958037084401e-7
          0.000041049355297958846 -6.24495803708429e-7 -6.244958037084401e-7 0.000041049355297958846 -6.24495803708429e-7 -6.244958037084401e-7
          0.000041049355297958846 -6.24495803708429e-7 -6.244958037084401e-7 0.000041049355297958846 -6.24495803708429e-7 -6.244958037084401e-7
          0.00004144681795328819 -0.0000023380120941646555 -0.0000023380120941646657 0.00004144681795328819 -0.0000023380120941646555 -0.0000023380120941646657
          0.00004144681795328819 -0.0000023380120941646555 -0.0000023380120941646657 0.00004144681795328819 -0.0000023380120941646555 -0.0000023380120941646657
          0.00004144681795328819 -0.0000023380120941646555 -0.0000023380120941646657 0.00004144681795328819 -0.0000023380120941646555 -0.0000023380120941646657
          0.00004144681795328819 -0.0000023380120941646555 -0.0000023380120941646657 0.00004144681795328819 -0.0000023380120941646555 -0.0000023380120941646657
          0.00004124903826273844 -0.0000023306500685534425 -6.264684525256215e-7 0.00004124903826273844 -0.0000023306500685534425 -6.264684525256215e-7
          0.00004124903826273844 -0.0000023306500685534425 -6.264684525256215e-7 0.00004124903826273844 -0.0000023306500685534425 -6.264684525256215e-7
          0.00004124903826273844 -0.0000023306500685534425 -6.264684525256215e-7 0.00004124903826273844 -0.0000023306500685534425 -6.264684525256215e-7
          0.00004124903826273844 -0.0000023306500685534425 -6.264684525256215e-7 0.00004124903826273844 -0.0000023306500685534425 -6.264684525256215e-7
          0.0001539435065598925 -0.0000023380120941646305 -0.00000869810447050537 0.0001539435065598925 -0.0000023380120941646305 -0.00000869810447050537
          0.0001539435065598925 -0.0000023380120941646305 -0.00000869810447050537 0.0001539435065598925 -0.0000023380120941646305 -0.00000869810447050537
          0.00015319827958992907 -0.0000023306500685534176 -0.000002330650068553459 0.00015319827958992907 -0.0000023306500685534176 -0.000002330650068553459
          0.00015319827958992907 -0.0000023306500685534176 -0.000002330650068553459 0.00015319827958992907 -0.0000023306500685534176 -0.000002330650068553459
          0.00015468163041372943 -0.000008725579924133002 -0.000008725579924133043 0.00015468163041372943 -0.000008725579924133002 -0.000008725579924133043
          0.00015468163041372943 -0.000008725579924133002 -0.000008725579924133043 0.00015468163041372943 -0.000008725579924133002 -0.000008725579924133043
          0.0001539435065598925 -0.000008698104470505333 -0.0000023380120941646703 0.0001539435065598925 -0.000008698104470505333 -0.0000023380120941646703
          0.0001539435065598925 -0.000008698104470505333 -0.0000023380120941646703 0.0001539435065598925 -0.000008698104470505333 -0.0000023380120941646703
          0.000041049355297958846 -6.244958037084285e-7 6.244958037084353e-7 0.000041049355297958846 -6.244958037084285e-7 6.244958037084353e-7
          0.000041049355297958846 -6.244958037084285e-7 6.244958037084353e-7 0.000041049355297958846 -6.244958037084285e-7 6.244958037084353e-7
          0.000041049355297958846 -6.244958037084285e-7 6.244958037084353e-7 0.000041049355297958846 -6.244958037084285e-7 6.244958037084353e-7
          0.000041049355297958846 -6.244958037084285e-7 6.244958037084353e-7 0.000041049355297958846 -6.244958037084285e-7 6.244958037084353e-7
          0.000041249038262738434 -6.264684525256095e-7 0.0000023306500685534476 0.000041249038262738434 -6.264684525256095e-7 0.0000023306500685534476
          0.000041249038262738434 -6.264684525256095e-7 0.0000023306500685534476 0.000041249038262738434 -6.264684525256095e-7 0.0000023306500685534476
          0.000041249038262738434 -6.264684525256095e-7 0.0000023306500685534476 0.000041249038262738434 -6.264684525256095e-7 0.0000023306500685534476
          0.000041249038262738434 -6.264684525256095e-7 0.0000023306500685534476 0.000041249038262738434 -6.264684525256095e-7 0.0000023306500685534476
          0.00004124903826273844 -0.000002330650068553442 6.264684525256179e-7 0.00004124903826273844 -0.000002330650068553442 6.264684525256179e-7
          0.00004124903826273844 -0.000002330650068553442 6.264684525256179e-7 0.00004124903826273844 -0.000002330650068553442 6.264684525256179e-7
          0.00004124903826273844 -0.000002330650068553442 6.264684525256179e-7 0.00004124903826273844 -0.000002330650068553442 6.264684525256179e-7
          0.00004124903826273844 -0.000002330650068553442 6.264684525256179e-7 0.00004124903826273844 -0.000002330650068553442 6.264684525256179e-7
          0.000041446817953288186 -0.0000023380120941646534 0.000002338012094164662 0.000041446817953288186 -0.0000023380120941646534 0.000002338012094164662
          0.000041446817953288186 -0.0000023380120941646534 0.000002338012094164662 0.000041446817953288186 -0.0000023380120941646534 0.000002338012094164662
          0.000041446817953288186 -0.0000023380120941646534 0.000002338012094164662 0.000041446817953288186 -0.0000023380120941646534 0.000002338012094164662
          0.000041446817953288186 -0.0000023380120941646534 0.000002338012094164662 0.000041446817953288186 -0.0000023380120941646534 0.000002338012094164662
          0.00015319827958992907 -0.0000023306500685534163 0.0000023306500685534413 0.00015319827958992907 -0.0000023306500685534163 0.0000023306500685534413
          0.00015319827958992907 -0.0000023306500685534163 0.0000023306500685534413 0.00015319827958992907 -0.0000023306500685534163 0.0000023306500685534413
          0.0001539435065598925 -0.0000023380120941646263 0.000008698104470505352 0.0001539435065598925 -0.0000023380120941646263 0.000008698104470505352
          0.0001539435065598925 -0.0000023380120941646263 0.000008698104470505352 0.0001539435065598925 -0.0000023380120941646263 0.000008698104470505352
          0.0001539435065598925 -0.000008698104470505332 0.000002338012094164657 0.0001539435065598925 -0.000008698104470505332 0.000002338012094164657
          0.0001539435065598925 -0.000008698104470505332 0.000002338012094164657 0.0001539435065598925 -0.000008698104470505332 0.000002338012094164657
          0.00015468163041372943 -0.000008725579924132997 0.000008725579924133028 0.00015468163041372943 -0.000008725579924132997 0.000008725579924133028
          0.00015468163041372943 -0.000008725579924132997 0.000008725579924133028 0.00015468163041372943 -0.000008725579924132997 0.000008725579924133028
          0.00023917337210355833 0.000010624139135489849 -0.000010624139135489822 0.00023917337210355833 0.000010624139135489849 -0.000010624139135489822
          0.00023917337210355833 0.000010624139135489849 -0.000010624139135489822 0.00023917337210355833 0.000010624139135489849 -0.000010624139135489822
          0.0002384335160607773 0.00001061034693982528 -0.0000028467295016303987 0.0002384335160607773 0.00001061034693982528 -0.0000028467295016303987
          0.0002384335160607773 0.00001061034693982528 -0.0000028467295016303987 0.0002384335160607773 0.00001061034693982528 -0.0000028467295016303987
          0.00023843351606077734 0.0000028467295016304224 -0.000010610346939825252 0.00023843351606077734 0.0000028467295016304224 -0.000010610346939825252
          0.00023843351606077734 0.0000028467295016304224 -0.000010610346939825252 0.00023843351606077734 0.0000028467295016304224 -0.000010610346939825252
          0.00023768659130852398 0.000002843033893940252 -0.000002843033893940223 0.00023768659130852398 0.000002843033893940252 -0.000002843033893940223
          0.00023768659130852398 0.000002843033893940252 -0.000002843033893940223 0.00023768659130852398 0.000002843033893940252 -0.000002843033893940223
          0.00035677429075971505 0.00000942353153212608 -0.000009423531532126076 0.00035677429075971505 0.00000942353153212608 -0.000009423531532126076
          0.00035677429075971505 0.00000942353153212608 -0.000009423531532126076 0.00035677429075971505 0.00000942353153212608 -0.000009423531532126076
          0.00035657004645201786 0.000009467236120446244 -0.0000025250276638824313 0.00035657004645201786 0.000009467236120446244 -0.0000025250276638824313
          0.00035657004645201786 0.000009467236120446244 -0.0000025250276638824313 0.00035657004645201786 0.000009467236120446244 -0.0000025250276638824313
          0.00035657004645201786 0.0000025250276638824364 -0.000009467236120446223 0.00035657004645201786 0.0000025250276638824364 -0.000009467236120446223
          0.00035657004645201786 0.0000025250276638824364 -0.000009467236120446223 0.00035657004645201786 0.0000025250276638824364 -0.000009467236120446223
          0.000356364027277472 0.0000025367382730283667 -0.000002536738273028343 0.000356364027277472 0.0000025367382730283667 -0.000002536738273028343
          0.000356364027277472 0.0000025367382730283667 -0.000002536738273028343 0.000356364027277472 0.0000025367382730283667 -0.000002536738273028343
          0.0002384335160607773 0.000010610346939825283 0.000002846729501630359 0.0002384335160607773 0.000010610346939825283 0.000002846729501630359
          0.0002384335160607773 0.000010610346939825283 0.000002846729501630359 0.0002384335160607773 0.000010610346939825283 0.000002846729501630359
          0.0002391733721035583 0.00001062413913548986 0.000010624139135489781 0.0002391733721035583 0.00001062413913548986 0.000010624139135489781
          0.0002391733721035583 0.00001062413913548986 0.000010624139135489781 0.0002391733721035583 0.00001062413913548986 0.000010624139135489781
          0.00023768659130852398 0.0000028430338939402554 0.0000028430338939401885 0.00023768659130852398 0.0000028430338939402554 0.0000028430338939401885
          0.00023768659130852398 0.0000028430338939402554 0.0000028430338939401885 0.00023768659130852398 0.0000028430338939402554 0.0000028430338939401885
          0.00023843351606077734 0.0000028467295016304326 0.000010610346939825217 0.00023843351606077734 0.0000028467295016304326 0.000010610346939825217
          0.00023843351606077734 0.0000028467295016304326 0.000010610346939825217 0.00023843351606077734 0.0000028467295016304326 0.000010610346939825217
          0.00035657004645201786 0.000009467236120446252 0.000002525027663882352 0.00035657004645201786 0.000009467236120446252 0.000002525027663882352
          0.00035657004645201786 0.000009467236120446252 0.000002525027663882352 0.00035657004645201786 0.000009467236120446252 0.000002525027663882352
          0.00035677429075971505 0.000009423531532126106 0.000009423531532125995 0.00035677429075971505 0.000009423531532126106 0.000009423531532125995
          0.00035677429075971505 0.000009423531532126106 0.000009423531532125995 0.00035677429075971505 0.000009423531532126106 0.000009423531532125995
          0.0003563640272774721 0.0000025367382730283735 0.000002536738273028282 0.0003563640272774721 0.0000025367382730283735 0.000002536738273028282
          0.0003563640272774721 0.0000025367382730283735 0.000002536738273028282 0.0003563640272774721 0.0000025367382730283735 0.000002536738273028282
          0.00035657004645201786 0.000002525027663882462 0.000009467236120446159 0.00035657004645201786 0.000002525027663882462 0.000009467236120446159
          0.00035657004645201786 0.000002525027663882462 0.000009467236120446159 0.00035657004645201786 0.000002525027663882462 0.000009467236120446159
          0.00023843351606077734 -0.0000028467295016303373 -0.00001061034693982525 0.00023843351606077734 -0.0000028467295016303373 -0.00001061034693982525
          0.00023843351606077734 -0.0000028467295016303373 -0.00001061034693982525 0.00023843351606077734 -0.0000028467295016303373 -0.00001061034693982525
          0.00023768659130852398 -0.000002843033893940161 -0.000002843033893940221 0.00023768659130852398 -0.000002843033893940161 -0.000002843033893940221
          0.00023768659130852398 -0.000002843033893940161 -0.000002843033893940221 0.00023768659130852398 -0.000002843033893940161 -0.000002843033893940221
          0.00023917337210355833 -0.000010624139135489764 -0.000010624139135489817 0.00023917337210355833 -0.000010624139135489764 -0.000010624139135489817
          0.00023917337210355833 -0.000010624139135489764 -0.000010624139135489817 0.00023917337210355833 -0.000010624139135489764 -0.000010624139135489817
          0.00023843351606077734 -0.000010610346939825195 -0.0000028467295016303907 0.00023843351606077734 -0.000010610346939825195 -0.0000028467295016303907
          0.00023843351606077734 -0.000010610346939825195 -0.0000028467295016303907 0.00023843351606077734 -0.000010610346939825195 -0.0000028467295016303907
          0.0003565700464520179 -0.000002525027663882347 -0.000009467236120446215 0.0003565700464520179 -0.000002525027663882347 -0.000009467236120446215
          0.0003565700464520179 -0.000002525027663882347 -0.000009467236120446215 0.0003565700464520179 -0.000002525027663882347 -0.000009467236120446215
          0.0003563640272774721 -0.0000025367382730282566 -0.0000025367382730283367 0.0003563640272774721 -0.0000025367382730282566 -0.0000025367382730283367
          0.0003563640272774721 -0.0000025367382730282566 -0.0000025367382730283367 0.0003563640272774721 -0.0000025367382730282566 -0.0000025367382730283367
          0.0003567742907597151 -0.00000942353153212599 -0.000009423531532126052 0.0003567742907597151 -0.00000942353153212599 -0.000009423531532126052
          0.0003567742907597151 -0.00000942353153212599 -0.000009423531532126052 0.0003567742907597151 -0.00000942353153212599 -0.000009423531532126052
          0.0003565700464520179 -0.000009467236120446135 -0.000002525027663882409 0.0003565700464520179 -0.000009467236120446135 -0.000002525027663882409
          0.0003565700464520179 -0.000009467236120446135 -0.000002525027663882409 0.0003565700464520179 -0.000009467236120446135 -0.000002525027663882409
          0.00023768659130852398 -0.000002843033893940158 0.000002843033893940192 0.00023768659130852398 -0.000002843033893940158 0.000002843033893940192
          0.00023768659130852398 -0.000002843033893940158 0.000002843033893940192 0.00023768659130852398 -0.000002843033893940158 0.000002843033893940192
          0.00023843351606077734 -0.000002846729501630327 0.00001061034693982522 0.00023843351606077734 -0.000002846729501630327 0.00001061034693982522
          0.00023843351606077734 -0.000002846729501630327 0.00001061034693982522 0.00023843351606077734 -0.000002846729501630327 0.00001061034693982522
          0.00023843351606077734 -0.000010610346939825193 0.0000028467295016303695 0.00023843351606077734 -0.000010610346939825193 0.0000028467295016303695
          0.00023843351606077734 -0.000010610346939825193 0.0000028467295016303695 0.00023843351606077734 -0.000010610346939825193 0.0000028467295016303695
          0.00023917337210355833 -0.000010624139135489754 0.000010624139135489797 0.00023917337210355833 -0.000010624139135489754 0.000010624139135489797
          0.00023917337210355833 -0.000010624139135489754 0.000010624139135489797 0.00023917337210355833 -0.000010624139135489754 0.000010624139135489797
          0.000356364027277472 -0.00000253673827302825 0.000002536738273028288 0.000356364027277472 -0.00000253673827302825 0.000002536738273028288
          0.000356364027277472 -0.00000253673827302825 0.000002536738273028288 0.000356364027277472 -0.00000253673827302825 0.000002536738273028288
          0.00035657004645201786 -0.0000025250276638823233 0.000009467236120446166 0.00035657004645201786 -0.0000025250276638823233 0.000009467236120446166
          0.00035657004645201786 -0.0000025250276638823233 0.000009467236120446166 0.00035657004645201786 -0.0000025250276638823233 0.000009467236120446166
          0.0003565700464520179 -0.00000946723612044613 0.0000025250276638823733 0.0003565700464520179 -0.00000946723612044613 0.0000025250276638823733
          0.0003565700464520179 -0.00000946723612044613 0.0000025250276638823733 0.0003565700464520179 -0.00000946723612044613 0.0000025250276638823733
          0.00035677429075971505 -0.000009423531532125969 0.000009423531532126017 0.00035677429075971505 -0.000009423531532125969 0.000009423531532126017
          0.00035677429075971505 -0.000009423531532125969 0.000009423531532126017 0.00035677429075971505 -0.000009423531532125969 0.000009423531532126017
          0.0004428807579627681 0.000009433399804230115 -0.000009433399804230117 0.0004428807579627681 0.000009433399804230115 -0.000009433399804230117
          0.0004428807579627681 0.000009433399804230115 -0.000009433399804230117 0.0004428807579627681 0.000009433399804230115 -0.000009433399804230117
          0.00044307898936256975 0.000009476924975660558 -0.0000025276718594234026 0.00044307898936256975 0.000009476924975660558 -0.0000025276718594234026
          0.00044307898936256975 0.000009476924975660558 -0.0000025276718594234026 0.00044307898936256975 0.000009476924975660558 -0.0000025276718594234026
          0.00044307898936256975 0.000002527671859423401 -0.00000947692497566054 0.00044307898936256975 0.000002527671859423401 -0.00000947692497566054
          0.00044307898936256975 0.000002527671859423401 -0.00000947692497566054 0.00044307898936256975 0.000002527671859423401 -0.00000947692497566054
          0.0004432791160619001 0.0000025393343939586233 -0.000002539334393958603 0.0004432791160619001 0.0000025393343939586233 -0.000002539334393958603
          0.0004432791160619001 0.0000025393343939586233 -0.000002539334393958603 0.0004432791160619001 0.0000025393343939586233 -0.000002539334393958603
          0.0005605270825656157 0.000010660968028365018 -0.000010660968028365025 0.0005605270825656157 0.000010660968028365018 -0.000010660968028365025
          0.0005605270825656157 0.000010660968028365018 -0.000010660968028365025 0.0005605270825656157 0.000010660968028365018 -0.000010660968028365025
          0.0005612892863120324 0.000010646506239752283 -0.000002856597773734451 0.0005612892863120324 0.000010646506239752283 -0.000002856597773734451
          0.0005612892863120324 0.000010646506239752283 -0.000002856597773734451 0.0005612892863120324 0.000010646506239752283 -0.000002856597773734451
          0.0005612892863120324 0.00000285659777373445 -0.000010646506239752263 0.0005612892863120324 0.00000285659777373445 -0.000010646506239752263
          0.0005612892863120324 0.00000285659777373445 -0.000010646506239752263 0.0005612892863120324 0.00000285659777373445 -0.000010646506239752263
          0.0005620581185963691 0.0000028527227491545645 -0.0000028527227491545446 0.0005620581185963691 0.0000028527227491545645 -0.0000028527227491545446
          0.0005620581185963691 0.0000028527227491545645 -0.0000028527227491545446 0.0005620581185963691 0.0000028527227491545645 -0.0000028527227491545446
          0.0004430789893625697 0.000009476924975660567 0.000002527671859423317 0.0004430789893625697 0.000009476924975660567 0.000002527671859423317
          0.0004430789893625697 0.000009476924975660567 0.000002527671859423317 0.0004430789893625697 0.000009476924975660567 0.000002527671859423317
          0.0004428807579627681 0.000009433399804230146 0.000009433399804230032 0.0004428807579627681 0.000009433399804230146 0.000009433399804230032
          0.0004428807579627681 0.000009433399804230146 0.000009433399804230032 0.0004428807579627681 0.000009433399804230146 0.000009433399804230032
          0.00044327911606190014 0.0000025393343939586318 0.0000025393343939585386 0.00044327911606190014 0.0000025393343939586318 0.0000025393343939585386
          0.00044327911606190014 0.0000025393343939586318 0.0000025393343939585386 0.00044327911606190014 0.0000025393343939586318 0.0000025393343939585386
          0.0004430789893625697 0.0000025276718594234297 0.000009476924975660477 0.0004430789893625697 0.0000025276718594234297 0.000009476924975660477
          0.0004430789893625697 0.0000025276718594234297 0.000009476924975660477 0.0004430789893625697 0.0000025276718594234297 0.000009476924975660477
          0.0005612892863120323 0.00001064650623975229 0.000002856597773734385 0.0005612892863120323 0.00001064650623975229 0.000002856597773734385
          0.0005612892863120323 0.00001064650623975229 0.000002856597773734385 0.0005612892863120323 0.00001064650623975229 0.000002856597773734385
          0.0005605270825656157 0.000010660968028365044 0.000010660968028364959 0.0005605270825656157 0.000010660968028365044 0.000010660968028364959
          0.0005605270825656157 0.000010660968028365044 0.000010660968028364959 0.0005605270825656157 0.000010660968028365044 0.000010660968028364959
          0.0005620581185963691 0.0000028527227491545704 0.0000028527227491544997 0.0005620581185963691 0.0000028527227491545704 0.0000028527227491544997
          0.0005620581185963691 0.0000028527227491545704 0.0000028527227491544997 0.0005620581185963691 0.0000028527227491545704 0.0000028527227491544997
          0.0005612892863120323 0.0000028565977737344726 0.000010646506239752219 0.0005612892863120323 0.0000028565977737344726 0.000010646506239752219
          0.0005612892863120323 0.0000028565977737344726 0.000010646506239752219 0.0005612892863120323 0.0000028565977737344726 0.000010646506239752219
          0.0004430789893625698 -0.000002527671859423316 -0.000009476924975660531 0.0004430789893625698 -0.000002527671859423316 -0.000009476924975660531
          0.0004430789893625698 -0.000002527671859423316 -0.000009476924975660531 0.0004430789893625698 -0.000002527671859423316 -0.000009476924975660531