<?xml version="1.0"?>
<VTKFile type="UnstructuredGrid" version="0.1" byte_order="LittleEndian" header_type="UInt32" compressor="vtkZLibDataCompressor">
  <UnstructuredGrid>
    <Piece NumberOfPoints="128" NumberOfCells="128">
      <PointData Scalars="qp_stress_von_mises" Vectors="displacement">
        <DataArray type="Float64" Name="displacement" NumberOfComponents="3" format="ascii" RangeMin="0.00004206874610446946" RangeMax="0.0007579336768682826">
          0.000042246180371129296 0.0000011599586746243276 -0.0000011599586746243153 0.000042156360844442116 0.0000011597541451052056 -3.1080999011904866e-7
          0.00004215636084444211 3.1080999011906004e-7 -0.0000011597541451051866 0.00004206645054233025 3.1075518659958616e-7 -3.107551865995667e-7
          0.00015766489157077355 0.000004329024708378246 -0.000004329024708378202 0.00015732968053366517 0.000004328261393821235 -0.0000011599586746242702
          0.00015732968053366514 0.000001159958674624313 -0.000004328261393821164 0.00015699413071805984 0.000001159754145105203 -0.0000011597541451051298
          0.000042156360844442116 0.0000011597541451052084 3.108099901190818e-7 0.00004224618037112931 0.0000011599586746243382 0.0000011599586746243488
          0.00004206645054233026 3.107551865995889e-7 3.1075518659960787e-7 0.000042156360844442116 3.1080999011907036e-7 0.0000011597541451052268
          0.00015732968053366517 0.000004328261393821245 0.000001159958674624394 0.00015766489157077358 0.000004329024708378285 0.0000043290247083783245
          0.00015699413071805984 0.0000011597541451052134 0.0000011597541451052838 0.0001573296805336652 0.0000011599586746243515 0.000004328261393821314
          0.000042156360844442116 -3.108099901190706e-7 -0.000001159754145105184 0.00004206645054233025 -3.107551865995885e-7 -3.107551865995643e-7
          0.00004224618037112931 -0.000001159958674624338 -0.0000011599586746243064 0.000042156360844442116 -0.000001159754145105209 -3.108099901190396e-7
          0.00015732968053366517 -0.0000011599586746243526 -0.000004328261393821155 0.00015699413071805987 -0.0000011597541451052115 -0.000001159754145105121
          0.00015766489157077358 -0.000004329024708378285 -0.000004329024708378168 0.00015732968053366517 -0.000004328261393821247 -0.0000011599586746242367
          0.00004206645054233026 -3.1075518659958584e-7 3.1075518659961035e-7 0.000042156360844442116 -3.1080999011906057e-7 0.0000011597541451052298
          0.000042156360844442116 -0.0000011597541451052065 3.108099901190912e-7 0.000042246180371129316 -0.0000011599586746243282 0.0000011599586746243591
          0.00015699413071805987 -0.0000011597541451052016 0.000001159754145105293 0.0001573296805336652 -0.000001159958674624315 0.000004328261393821324
          0.0001573296805336652 -0.000004328261393821237 0.000001159958674624429 0.0001576648915707736 -0.000004329024708378248 0.0000043290247083783635
          0.00024219483773284844 0.000005217875350938817 -0.000005217875350938753 0.00024185962669574004 0.000005217974541884064 -0.0000013981254864902317
          0.00024185962669574004 0.000001398125486490292 -0.0000052179745418839675 0.00024152407688013473 0.0000013981520646239816 -0.0000013981520646238838
          0.00035771623420905455 0.000004477194433000622 -0.000004477194433000538 0.0003576264146823673 0.000004480208817837735 -0.0000011996606326795149
          0.0003576264146823674 0.0000011996606326795917 -0.00000448020881783762 0.00035753650438025554 0.000001200468334662384 -0.000001200468334662273
          0.00024185962669574004 0.000005217974541884077 0.0000013981254864904193 0.00024219483773284844 0.000005217875350938863 0.000005217875350938943
          0.00024152407688013473 0.0000013981520646239943 0.0000013981520646241095 0.0002418596266957401 0.0000013981254864903397 0.00000521797454188419
          0.0003576264146823673 0.000004480208817837745 0.0000011996606326797857 0.0003577162342090545 0.000004477194433000662 0.000004477194433000819
          0.00035753650438025554 0.000001200468334662396 0.0000012004683346625815 0.0003576264146823674 0.0000011996606326796362 0.000004480208817837932
          0.00024185962669574006 -0.0000013981254864903604 -0.0000052179745418839565 0.00024152407688013476 -0.000001398152064624013 -0.000001398152064623872
          0.00024219483773284847 -0.000005217875350938885 -0.000005217875350938708 0.00024185962669574006 -0.000005217974541884099 -0.0000013981254864901866
          0.00035762641468236743 -0.0000011996606326797101 -0.000004480208817837606 0.00035753650438025554 -0.0000012004683346624716 -0.000001200468334662259
          0.00035771623420905466 -0.000004477194433000741 -0.0000044771944330004884 0.00035762641468236743 -0.000004480208817837822 -0.000001199660632679462
          0.00024152407688013476 -0.0000013981520646240003 0.0000013981520646241216 0.0002418596266957401 -0.0000013981254864903128 0.000005217974541884203
          0.0002418596266957401 -0.000005217974541884085 0.0000013981254864904657 0.00024219483773284852 -0.000005217875350938838 0.000005217875350938992
          0.00035753650438025554 -0.000001200468334662459 0.0000012004683346625954 0.0003576264146823674 -0.0000011996606326796627 0.000004480208817837945
          0.00035762641468236743 -0.000004480208817837808 0.000001199660632679838 0.0003577162342090547 -0.000004477194433000688 0.000004477194433000867
          0.0004422837657909457 0.000004477194433000613 -0.00000447719443300053 0.0004423735853176329 0.000004480208817837722 -0.000001199660632679509
          0.00044237358531763293 0.0000011996606326795854 -0.000004480208817837614 0.0004424634956197449 0.0000012004683346623752 -0.0000012004683346622702
          0.0005578051622671518 0.000005217875350938782 -0.0000052178753509387245 0.0005581403733042602 0.000005217974541884016 -0.0000013981254864902105
          0.0005581403733042602 0.0000013981254864902679 -0.0000052179745418839455 0.0005584759231198654 0.0000013981520646239482 -0.0000013981520646238745
          0.0004423735853176329 0.000004480208817837732 0.0000011996606326797902 0.00044228376579094565 0.000004477194433000648 0.0000044771944330008205
          0.0004424634956197447 0.0000012004683346623847 0.0000012004683346625817 0.00044237358531763293 0.000001199660632679621 0.000004480208817837931
          0.0005581403733042602 0.000005217974541884022 0.0000013981254864904347 0.0005578051622671517 0.000005217875350938807 0.0000052178753509389515
          0.0005584759231198655 0.0000013981520646239522 0.0000013981520646241116 0.0005581403733042602 0.0000013981254864902833 0.000005217974541884186
          0.000442373585317633 -0.0000011996606326797146 -0.000004480208817837602 0.0004424634956197448 -0.0000012004683346624783 -0.000001200468334662258
          0.00044228376579094576 -0.0000044771944330007425 -0.000004477194433000488 0.00044237358531763293 -0.000004480208817837826 -0.0000011996606326794636
          0.0005581403733042602 -0.0000013981254864903767 -0.0000052179745418839404 0.0005584759231198655 -0.0000013981520646240377 -0.0000013981520646238698
          0.0005578051622671518 -0.00000521787535093889 -0.000005217875350938703 0.0005581403733042602 -0.000005217974541884115 -0.000001398125486490193
          0.00044246349561974477 -0.000001200468334662468 0.0000012004683346625935 0.0004423735853176329 -0.0000011996606326796764 0.000004480208817837941
          0.000442373585317633 -0.000004480208817837815 0.0000011996606326798336 0.0004422837657909458 -0.000004477194433000699 0.000004477194433000858
          0.0005584759231198655 -0.0000013981520646240344 0.0000013981520646241155 0.0005581403733042601 -0.000001398125486490364 0.000005217974541884187
          0.0005581403733042602 -0.0000052179745418841115 0.0000013981254864904487 0.0005578051622671517 -0.000005217875350938878 0.000005217875350938958
          0.0006423351084292267 0.000004329024708378211 -0.000004329024708378173 0.0006426703194663351 0.000004328261393821186 -0.0000011599586746242492
          0.000642670319466335 0.0000011599586746242888 -0.000004328261393821142 0.0006430058692819404 0.0000011597541451051696 -0.0000011597541451051205
          0.0007577538196288709 0.0000011599586746243183 -0.0000011599586746243077 0.0007578436391555581 0.0000011597541451051927 -3.10809990119043e-7
          0.000757843639155558 3.108099901190536e-7 -0.0000011597541451051806 0.0007579335494576698 3.1075518659957716e-7 -3.1075518659956414e-7
          0.000642670319466335 0.00000432826139382119 0.0000011599586746244095 0.0006423351084292266 0.000004329024708378227 0.000004329024708378333
          0.0006430058692819404 0.0000011597541451051713 0.0000011597541451052859 0.000642670319466335 0.0000011599586746242952 0.00000432826139382131
          0.0007578436391555581 0.0000011597541451051938 3.10809990119086e-7 0.0007577538196288709 0.0000011599586746243223 0.0000011599586746243509
          0.0007579335494576699 3.107551865995777e-7 3.1075518659960845e-7 0.0007578436391555581 3.1080999011905533e-7 0.0000011597541451052257
          0.000642670319466335 -0.0000011599586746243689 -0.00000432826139382114 0.0006430058692819403 -0.0000011597541451052361 -0.0000011597541451051188
          0.0006423351084292266 -0.00000432902470837829 -0.000004329024708378163 0.000642670319466335 -0.000004328261393821263 -0.0000011599586746242433
          0.000757843639155558 -3.10809990119075e-7 -0.00000115975414510518 0.0007579335494576699 -3.107551865995951e-7 -3.107551865995637e-7
          0.0007577538196288709 -0.0000011599586746243394 -0.0000011599586746243051 0.0007578436391555581 -0.0000011597541451052132 -3.108099901190414e-7
          0.0006430058692819403 -0.0000011597541451052357 0.0000011597541451052867 0.0006426703194663349 -0.0000011599586746243663 0.000004328261393821309
          0.0006426703194663349 -0.0000043282613938212626 0.000001159958674624412 0.0006423351084292266 -0.000004329024708378289 0.00000432902470837833
          0.0007579335494576699 -3.1075518659959495e-7 3.107551865996086e-7 0.000757843639155558 -3.108099901190744e-7 0.0000011597541451052255
          0.000757843639155558 -0.000001159754145105213 3.1080999011908667e-7 0.0007577538196288707 -0.0000011599586746243392 0.00000115995867462435
          <InformationKey name="L2_NORM_RANGE" location="vtkDataArray" length="2">
            <Value index="0">
              4.2068746104e-05
            </Value>
            <Value index="1">
              0.00075793367687
            </Value>
          </InformationKey>
        </DataArray>
        <DataArray type="Float64" Name="qp_strain_voigt" NumberOfComponents="6" format="ascii" RangeMin="0.0007965373353286297" RangeMax="0.0008092491419843657">
          0.000799644287767611 -0.000014707686647433983 -0.000014707686647433973 7.08511037545839e-9 -0.000020400213694670115 0.000020400213694670094
          0.0007979441655124289 -0.00001470509331704795 -0.000014707686647433975 4.49177998943298e-9 -0.0000043273548216333636 0.00002039477004188922
          0.0007979441655124289 -0.000014707686647433985 -0.000014705093317047949 4.491779989413823e-9 -0.000020394770041889416 0.000004327354821633327
          0.0007962423250415602 -0.000014705093317047939 -0.000014705093317047946 1.8984496033901068e-9 -0.000004324745213002854 0.00000432474521300269
          0.0007996442877676111 -0.000054889833830025963 -0.000054889833830025936 2.64419918984351e-8 -0.000016149908056714624 0.000016149908056714698
          0.0007979441655124291 -0.00005488015538926444 -0.000054889833830025936 1.676355113697932e-8 -7.704918367780466e-8 0.000016140168864717993
          0.0007979441655124289 -0.000054889833830025963 -0.00005488015538926448 1.676355113691271e-8 -0.000016140168864717702 7.704918367787691e-8
          0.0007962423250415602 -0.00005488015538926444 -0.00005488015538926448 7.085110375448461e-9 -7.014403583141122e-8 7.01440358312472e-8
          0.0007979441655124289 -0.000014705093317047944 -0.000014707686647433973 -4.491779989427713e-9 0.000004327354821633831 0.000020394770041889518
          0.0007996442877676112 -0.000014707686647433997 -0.000014707686647433977 -7.085110375478577e-9 0.000020400213694670643 0.000020400213694670006
          0.0007962423250415602 -0.000014705093317047944 -0.000014705093317047932 -1.8984496033802364e-9 0.000004324745213003393 0.000004324745213002959
          0.000797944165512429 -0.000014707686647433987 -0.000014705093317047929 -4.4917799894323714e-9 0.000020394770041890087 0.000004327354821633179
          0.0007979441655124291 -0.00005488015538926445 -0.00005488983383002594 -1.6763551136954232e-8 7.704918367800209e-8 0.0000161401688647181
          0.0007996442877676114 -0.000054889833830025984 -0.00005488983383002594 -2.6441991898473933e-8 0.000016149908056714705 0.00001614990805671472
          0.0007962423250415602 -0.00005488015538926445 -0.00005488015538926442 -7.085110375415897e-9 7.014403583157051e-8 7.014403583136753e-8
          0.0007979441655124291 -0.000054889833830025984 -0.00005488015538926442 -1.676355113693729e-8 0.000016140168864718156 7.704918367805413e-8
          0.0007979441655124287 -0.000014707686647433978 -0.000014705093317047949 -4.4917799894340895e-9 -0.000020394770041889287 -0.000004327354821633692
          0.0007962423250415602 -0.000014705093317047949 -0.00001470509331704795 -1.898449603412247e-9 -0.000004324745213002695 -0.000004324745213003547
          0.0007996442877676115 -0.000014707686647433978 -0.000014707686647433972 -7.0851103754616605e-9 -0.00002040021369466974 -0.000020400213694670443
          0.000797944165512429 -0.000014705093317047939 -0.000014707686647433968 -4.4917799894389715e-9 -0.0000043273548216329595 -0.00002039477004189012
          0.000797944165512429 -0.000054889833830025963 -0.00005488015538926448 -1.6763551137016737e-8 -0.000016140168864717587 -7.704918367728042e-8
          0.0007962423250415602 -0.0000548801553892645 -0.00005488015538926448 -7.085110375557469e-9 -7.014403583110254e-8 -7.014403583129099e-8
          0.0007996442877676115 -0.000054889833830025963 -0.000054889833830025936 -2.6441991898468675e-8 -0.000016149908056713963 -0.000016149908056714153
          0.0007979441655124291 -0.0000548801553892645 -0.000054889833830025936 -1.6763551137012793e-8 -7.704918367702161e-8 -0.00001614016886471792
          0.0007962423250415601 -0.000014705093317047952 -0.000014705093317047936 1.898449603381507e-9 0.000004324745213003432 -0.000004324745213003254
          0.000797944165512429 -0.000014707686647433982 -0.000014705093317047937 4.491779989425595e-9 0.00002039477004189002 -0.0000043273548216339
          0.000797944165512429 -0.000014705093317047952 -0.00001470768664743399 4.491779989412466e-9 0.000004327354821633952 -0.000020394770041889914
          0.0007996442877676114 -0.00001470768664743397 -0.000014707686647433987 7.085110375451472e-9 0.000020400213694670725 -0.000020400213694670708
          0.0007962423250415602 -0.000054880155389264515 -0.000054880155389264434 7.0851103754328374e-9 7.014403583148771e-8 -7.014403583124228e-8
          0.0007979441655124291 -0.000054889833830025984 -0.000054880155389264434 1.676355113701183e-8 0.00001614016886471802 -7.704918367769038e-8
          0.000797944165512429 -0.000054880155389264515 -0.000054889833830026004 1.6763551136910187e-8 7.704918367779711e-8 -0.00001614016886471786
          0.0007996442877676115 -0.000054889833830025984 -0.000054889833830026004 2.6441991898467157e-8 0.00001614990805671462 -0.00001614990805671444
          0.0008003557122323887 -0.00006616000837429177 -0.0000661600083742917 -3.436075135827398e-9 0.000010937613403558455 -0.000010937613403558513
          0.0008020558344875708 -0.00006616126606508074 -0.0000661600083742917 -2.1783843467673792e-9 0.000007181030316563055 -0.000010923284163511795
          0.0008020558344875711 -0.00006616000837429177 -0.00006616126606508077 -2.178384346830543e-9 0.00001092328416351188 -0.000007181030316563188
          0.00080375767495844 -0.00006616126606508074 -0.00006616126606508077 -9.206935577688302e-10 0.000007181486347480614 -0.0000071814863474800825
          0.0008003557122323889 -0.00005676855065680329 -0.000056768550656803185 -1.0442135382838294e-7 0.000006687307765603519 -0.0000066873077656030625
          0.0008020558344875711 -0.000056806771525002046 -0.000056768550656803185 -6.620048562957854e-8 0.0000029307246786083095 -0.000006668682986340298
          0.0008020558344875711 -0.00005676855065680329 -0.00005680677152500199 -6.620048562961538e-8 0.000006668682986340382 -0.0000029307246786074663
          0.00080375767495844 -0.00005680677152500205 -0.00005680677152500199 -2.797961743081945e-8 0.000002926885170308466 -0.000002926885170308585
          0.0008020558344875708 -0.00006616126606508077 -0.00006616000837429174 2.1783843468190147e-9 -0.000007181030316563149 -0.000010923284163512172
          0.0008003557122323883 -0.00006616000837429176 -0.00006616000837429174 3.436075135802608e-9 -0.000010937613403558391 -0.000010937613403558244
          0.0008037576749584396 -0.00006616126606508077 -0.00006616126606508073 9.206935578222926e-10 -0.000007181486347480172 -0.000007181486347480513
          0.0008020558344875711 -0.00006616000837429176 -0.00006616126606508073 2.1783843468033446e-9 -0.000010923284163511583 -0.0000071810303165629786
          0.0008020558344875708 -0.000056806771525002046 -0.00005676855065680335 6.620048562970574e-8 -0.0000029307246786073727 -0.000006668682986339617
          0.0008003557122323883 -0.00005676855065680323 -0.00005676855065680335 1.0442135382839236e-7 -0.000006687307765602831 -0.000006687307765602957
          0.0008037576749584396 -0.00005680677152500204 -0.000056806771525002046 2.797961743090054e-8 -0.0000029268851703082413 -0.0000029268851703072803
          0.0008020558344875714 -0.00005676855065680324 -0.000056806771525002046 6.620048562960579e-8 -0.000006668682986339869 -0.000002930724678607907
          0.0008020558344875716 -0.00006616000837429177 -0.0000661612660650808 2.178384346768629e-9 0.000010923284163512154 0.000007181030316563361
          0.0008037576749584399 -0.0000661612660650808 -0.0000661612660650808 9.206935577040569e-10 0.00000718148634748078 0.000007181486347480583
          0.0008003557122323887 -0.00006616000837429177 -0.00006616000837429171 3.4360751358165968e-9 0.000010937613403559243 0.000010937613403558938
          0.0008020558344875716 -0.0000661612660650808 -0.00006616000837429171 2.1783843467541423e-9 0.000007181030316563577 0.000010923284163512011
          0.0008020558344875715 -0.00005676855065680333 -0.000056806771525002 6.620048562971413e-8 0.000006668682986339978 0.000002930724678607504
          0.00080375767495844 -0.000056806771525002046 -0.000056806771525002 2.7979617430950627e-8 0.000002926885170308388 0.0000029268851703074586
          0.0008003557122323886 -0.00005676855065680332 -0.00005676855065680324 1.0442135382842278e-7 0.000006687307765603088 0.000006687307765603027
          0.0008020558344875716 -0.000056806771525002046 -0.00005676855065680324 6.620048562966605e-8 0.0000029307246786079644 0.0000066686829863393215
          0.0008037576749584402 -0.00006616126606508081 -0.00006616126606508075 -9.206935577981521e-10 -0.0000071814863474804425 0.000007181486347480479
          0.0008020558344875711 -0.00006616000837429176 -0.00006616126606508075 -2.1783843467474404e-9 -0.000010923284163511878 0.000007181030316563353
          0.0008020558344875714 -0.00006616126606508081 -0.00006616000837429178 -2.178384346848661e-9 -0.000007181030316563109 0.000010923284163511906
          0.0008003557122323893 -0.00006616000837429176 -0.00006616000837429178 -3.436075135809384e-9 -0.000010937613403558537 0.00001093761340355872
          0.0008037576749584403 -0.00005680677152500202 -0.00005680677152500203 -2.797961743086666e-8 -0.0000029268851703085115 0.0000029268851703086563
          0.0008020558344875713 -0.00005676855065680323 -0.00005680677152500203 -6.620048562959902e-8 -0.000006668682986339784 0.000002930724678607739
          0.0008020558344875714 -0.000056806771525002026 -0.00005676855065680328 -6.620048562965153e-8 -0.0000029307246786080376 0.000006668682986339921
          0.0008003557122323893 -0.00005676855065680324 -0.00005676855065680328 -1.0442135382839236e-7 -0.000006687307765603467 0.000006687307765603108
          0.0008003557122323885 -0.00005676855065680327 -0.00005676855065680317 -1.0442135382834285e-7 -0.0000066873077656025475 0.0000066873077656026136
          0.0008020558344875716 -0.000056806771525002 -0.000056768550656803185 -6.620048562957104e-8 -0.0000029307246786073088 0.000006668682986339808
          0.0008020558344875707 -0.00005676855065680326 -0.00005680677152500194 -6.620048562960046e-8 -0.0000066686829863406285 0.000002930724678607843
          0.0008037576749584392 -0.00005680677152500199 -0.00005680677152500194 -2.7979617430826533e-8 -0.000002926885170309068 0.0000029268851703088067
          0.0008003557122323886 -0.00006616000837429157 -0.00006616000837429155 -3.4360751356993815e-9 -0.00001093761340355919 0.000010937613403558335
          0.0008020558344875717 -0.0000661612660650805 -0.00006616000837429155 -2.1783843467088425e-9 -0.00000718103031656406 0.000010923284163511197
          0.0008020558344875705 -0.00006616000837429157 -0.00006616126606508055 -2.1783843468022275e-9 -0.000010923284163511585 0.000007181030316563023
          0.0008037576749584392 -0.0000661612660650805 -0.00006616126606508055 -9.206935578083006e-10 -0.000007181486347480023 0.000007181486347479328
          0.0008020558344875714 -0.00005680677152500199 -0.00005676855065680332 6.620048562965153e-8 0.000002930724678607069 0.000006668682986341177
          0.0008003557122323887 -0.00005676855065680324 -0.000056768550656803334 1.0442135382834493e-7 0.000006687307765602562 0.000006687307765602479
          0.0008037576749584392 -0.000056806771525001985 -0.000056806771525002005 2.797961743090054e-8 0.0000029268851703087817 0.000002926885170308971
          0.0008020558344875708 -0.00005676855065680323 -0.000056806771525002005 6.62004856296041e-8 0.000006668682986340174 0.000002930724678607092
          0.0008020558344875716 -0.00006616126606508052 -0.0000661600083742916 2.178384346632244e-9 0.000007181030316564201 0.000010923284163510995
          0.0008003557122323885 -0.00006616000837429171 -0.0000661600083742916 3.4360751356162606e-9 0.000010937613403559531 0.000010937613403559175
          0.0008037576749584392 -0.00006616126606508052 -0.0000661612660650806 9.206935578328805e-10 0.0000071814863474801714 0.000007181486347479168
          0.0008020558344875709 -0.00006616000837429171 -0.0000661612660650806 2.1783843468287556e-9 0.000010923284163511129 0.000007181030316563139
          0.0008020558344875706 -0.000056768550656803287 -0.000056806771525001944 6.620048562969935e-8 -0.000006668682986340788 -0.000002930724678607818
          0.0008037576749584392 -0.000056806771525002005 -0.00005680677152500196 2.7979617430950538e-8 -0.0000029268851703092577 -0.0000029268851703089604
          0.0008003557122323881 -0.00005676855065680327 -0.00005676855065680319 1.0442135382843044e-7 -0.0000066873077656030904 -0.000006687307765602684
          0.0008020558344875705 -0.00005680677152500199 -0.00005676855065680319 6.62004856296757e-8 -0.000002930724678607381 -0.0000066686829863406785
          0.0008020558344875709 -0.00006616000837429157 -0.00006616126606508052 2.178384346715701e-9 -0.000010923284163511852 -0.0000071810303165633224
          0.0008037576749584392 -0.00006616126606508064 -0.00006616126606508052 9.206935576983453e-10 -0.000007181486347479996 -0.0000071814863474788314
          0.0008003557122323877 -0.00006616000837429157 -0.00006616000837429151 3.436075135803056e-9 -0.000010937613403558703 -0.000010937613403558406
          0.0008020558344875705 -0.00006616126606508064 -0.00006616000837429151 2.178384346782312e-9 -0.000007181030316563428 -0.000010923284163510983
          0.0008037576749584389 -0.00005680677152500199 -0.000056806771525002 -2.7979617430837436e-8 0.0000029268851703089697 -0.0000029268851703081485
          0.0008020558344875707 -0.00005676855065680319 -0.00005680677152500201 -6.620048562962443e-8 0.000006668682986340309 -0.0000029307246786078263
          0.0008020558344875704 -0.000056806771525001985 -0.0000567685506568032 -6.620048562963502e-8 0.000002930724678606338 -0.000006668682986340114
          0.0008003557122323874 -0.00005676855065680318 -0.0000567685506568032 -1.0442135382841608e-7 0.000006687307765601851 -0.00000668730776560282
          0.0008037576749584392 -0.00006616126606508064 -0.00006616126606508056 -9.206935576821086e-10 0.000007181486347479817 -0.000007181486347480026
          0.0008020558344875707 -0.00006616000837429157 -0.00006616126606508056 -2.1783843467542167e-9 0.000010923284163510993 -0.000007181030316563439
          0.0008020558344875705 -0.00006616126606508064 -0.0000661600083742915 -2.178384346759299e-9 0.000007181030316563035 -0.000010923284163511396
          0.0008003557122323877 -0.00006616000837429157 -0.0000661600083742915 -3.4360751358398773e-9 0.000010937613403558111 -0.000010937613403558864
          0.0007996442877676108 -0.000054889833830025814 -0.000054889833830025814 2.6441991898573774e-8 0.00001614990805671383 -0.00001614990805671432
          0.0007979441655124285 -0.000054880155389264176 -0.00005488983383002581 1.67635511370301e-8 7.704918367646557e-8 -0.000016140168864719074
          0.0007979441655124285 -0.00005488983383002581 -0.000054880155389264264 1.6763551136943492e-8 0.000016140168864718207 -7.704918367695346e-8
          0.0007962423250415605 -0.00005488015538926418 -0.00005488015538926427 7.085110375411677e-9 7.014403583167385e-8 -7.014403583319173e-8
          0.0007996442877676106 -0.000014707686647433931 -0.000014707686647433934 7.085110375492514e-9 0.000020400213694669878 -0.00002040021369466966
          0.0007979441655124285 -0.000014705093317047864 -0.000014707686647433934 4.4917799894455286e-9 0.000004327354821633163 -0.000020394770041890463
          0.0007979441655124284 -0.000014707686647433931 -0.000014705093317047885 4.49177998942584e-9 0.000020394770041889596 -0.000004327354821632946
          0.0007962423250415605 -0.000014705093317047866 -0.000014705093317047888 1.898449603376313e-9 0.0000043247452130032796 -0.0000043247452130032796
          0.0007979441655124283 -0.00005488015538926423 -0.00005488983383002583 -1.6763551137133803e-8 -7.704918367711609e-8 -0.000016140168864718044
          0.0007996442877676109 -0.00005488983383002596 -0.00005488983383002582 -2.6441991898650116e-8 -0.000016149908056713397 -0.00001614990805671448
          0.0007962423250415596 -0.000054880155389264223 -0.0000548801553892643 -7.085110375405732e-9 -7.014403583210753e-8 -7.014403583281226e-8
          0.0007979441655124294 -0.00005488983383002596 -0.00005488015538926431 -1.6763551136916963e-8 -0.000016140168864718857 -7.704918367646557e-8
          0.0007979441655124286 -0.000014705093317047873 -0.000014707686647433936 -4.491779989473876e-9 -0.000004327354821633163 -0.00002039477004188938
          0.0007996442877676106 -0.000014707686647433972 -0.000014707686647433936 -7.0851103755124585e-9 -0.000020400213694669878 -0.000020400213694670745
          0.0007962423250415597 -0.000014705093317047873 -0.000014705093317047898 -1.8984496033751542e-9 -0.0000043247452130032796 -0.000004324745213003063
          0.0007979441655124294 -0.000014707686647433977 -0.0000147050933170479 -4.491779989412043e-9 -0.000020394770041890463 -0.000004327354821633163
          0.0007979441655124283 -0.00005488983383002579 -0.000054880155389264264 -1.6763551137065594e-8 0.000016140168864718423 7.704918367857977e-8
          0.0007962423250415596 -0.000054880155389264345 -0.00005488015538926426 -7.08511037556229e-9 7.014403583210753e-8 7.014403583210753e-8
          0.0007996442877676105 -0.00005488983383002578 -0.00005488983383002574 -2.644199189848365e-8 0.000016149908056714048 0.00001614990805671421
          0.0007979441655124294 -0.00005488015538926436 -0.000054889833830025747 -1.6763551136983736e-8 7.704918367668241e-8 0.000016140168864718857
          0.0007979441655124286 -0.000014707686647433922 -0.00001470509331704788 -4.491779989454439e-9 0.000020394770041889596 0.000004327354821634247
          0.0007962423250415598 -0.000014705093317047908 -0.00001470509331704788 -1.898449603417058e-9 0.000004324745213002412 0.0000043247452130032796
          0.0007996442877676107 -0.000014707686647433922 -0.000014707686647433916 -7.0851103754709986e-9 0.000020400213694669878 0.000020400213694670962
          0.0007979441655124294 -0.000014705093317047912 -0.00001470768664743392 -4.491779989431923e-9 0.000004327354821633163 0.000020394770041890463
          0.0007962423250415598 -0.00005488015538926438 -0.000054880155389264284 7.085110375553116e-9 -7.014403583232437e-8 7.0144035832487e-8
          0.0007979441655124285 -0.0000548898338300258 -0.00005488015538926428 1.6763551136998278e-8 -0.00001614016886471929 7.704918367798345e-8
          0.0007979441655124285 -0.000054880155389264366 -0.00005488983383002571 1.6763551136996584e-8 -7.704918367798345e-8 0.000016140168864719453
          0.0007996442877676114 -0.000054889833830025814 -0.00005488983383002572 2.6441991898433275e-8 -0.00001614990805671383 0.000016149908056713614
          0.0007962423250415598 -0.00001470509331704791 -0.000014705093317047891 1.8984496034153883e-9 -0.0000043247452130032796 0.000004324745213003496
          0.0007979441655124291 -0.000014707686647433933 -0.000014705093317047891 4.491779989430677e-9 -0.000020394770041889596 0.000004327354821633163
          0.000797944165512429 -0.00001470509331704791 -0.000014707686647433909 4.4917799894349125e-9 -0.00000432735482163403 0.000020394770041889812
          0.0007996442877676114 -0.000014707686647433936 -0.000014707686647433912 7.08511037545486e-9 -0.000020400213694670745 0.000020400213694670745