<?xml version="1.0"?>
<VTKFile type="UnstructuredGrid" version="0.1" byte_order="LittleEndian" header_type="UInt32" compressor="vtkZLibDataCompressor">
  <UnstructuredGrid>
    <Piece NumberOfPoints="45" NumberOfCells="16">
      <PointData Scalars="nodal_stress_von_mises" Vectors="displacement">
        <DataArray type="Float64" Name="displacement" NumberOfComponents="3" format="ascii" RangeMin="0" RangeMax="0.0008">
          0 0 0 0 0 0
          0 0 0 0 0 0
          0 0 0 0 0 0
          0 0 0 0 0 0
          0 0 0 0.00019686620293778398 0.000013991744040889305 -0.00001399174404088924
          0.00019525220736678312 0.000013972552569867878 -6.802120593317123e-21 0.000196866202937784 0.000013991744040889312 0.000013991744040889234
          0.0001952522073667831 6.163514625424185e-20 -0.000013972552569867822 0.00019362040200186022 5.97908586704976e-20 -1.916146661023702e-21
          0.0001952522073667831 6.746332493352508e-20 0.000013972552569867818 0.000196866202937784 -0.00001399174404088919 -0.000013991744040889259
          0.0001952522073667831 -0.00001397255256986776 7.488502552418098e-22 0.00019686620293778398 -0.000013991744040889185 0.000013991744040889256
          0.00039983066843074755 0.000011360979172686253 -0.000011360979172686222 0.0003998167639631082 0.000011442042884939484 -3.1826038202557818e-21
          0.0003998306684307475 0.000011360979172686267 0.000011360979172686204 0.00039981676396310826 3.800374219068485e-20 -0.000011442042884939442
          0.0003998029142761528 4.229104513253952e-20 -3.69650086479971e-21 0.00039981676396310826 4.9412705822594625e-20 0.000011442042884939435
          0.00039983066843074765 -0.00001136097917268618 -0.000011360979172686206 0.0003998167639631084 -0.000011442042884939396 1.0959807571435345e-22
          0.0003998306684307476 -0.000011360979172686167 0.00001136097917268621 0.0006028314854383946 0.000014048018396359517 -0.000014048018396359543
          0.0006045025997194341 0.00001402937869000006 -4.1177318466279703e-20 0.0006028314854383946 0.000014048018396359558 0.000014048018396359467
          0.0006045025997194341 1.9046208811548403e-20 -0.000014029378690000032 0.0006061901108362803 3.8814922278161365e-20 -1.2576297476410619e-20
          0.0006045025997194341 6.032390934162825e-20 0.000014029378690000003 0.0006028314854383946 -0.000014048018396359475 -0.000014048018396359499
          0.0006045025997194341 -0.000014029378689999979 8.82267080778145e-21 0.0006028314854383947 -0.00001404801839635944 0.000014048018396359512
          0.0008 0 0 0.0008 0 0
          0.0008 0 0 0.0008 0 0
          0.0008 0 0 0.0008 0 0
          0.0008 0 0 0.0008 0 0
          0.0008 0 0
          <InformationKey name="L2_NORM_RANGE" location="vtkDataArray" length="2">
            <Value index="0">
              0
            </Value>
            <Value index="1">
              0.0008
            </Value>
          </InformationKey>
        </DataArray>
        <DataArray type="Float64" Name="nodal_strain_voigt" NumberOfComponents="6" format="ascii" RangeMin="0.000787224235127375" RangeMax="0.000838009536383252">
          0.0007809910196732103 -0.00006991074152689265 -0.00006991074152689262 9.595735510713972e-8 -0.000019849794270947718 0.000019849794270947694
          0.0007809910196732103 -0.00006991074152689266 -0.00006991074152689264 1.6543612251060546e-22 -3.441071348220594e-20 0.00001984979427094764
          0.0007809910196732103 -0.00006991074152689266 -0.00006991074152689265 -9.595735510713939e-8 0.000019849794270947647 0.000019849794270947586
          0.0007809910196732102 -0.00006991074152689266 -0.00006991074152689266 -7.961613395822888e-21 -0.000019849794270947654 1.3102540902839954e-19
          0.0007809910196732102 -0.00006991074152689266 -0.00006991074152689266 -6.38480035314368e-21 6.617444900424219e-22 8.13945722752179e-20
          0.0007809910196732102 -0.00006991074152689266 -0.00006991074152689266 -4.807987310464472e-21 0.000019849794270947657 3.0440246541951406e-20
          0.0007809910196732102 -0.00006991074152689266 -0.0000699107415268927 -9.595735510715564e-8 -0.00001984979427094759 -0.00001984979427094743
          0.0007809910196732102 -0.00006991074152689266 -0.00006991074152689269 -1.2935036828797966e-20 3.5734202462290784e-20 -0.000019849794270947477
          0.0007809910196732102 -0.00006991074152689266 -0.00006991074152689268 9.595735510712977e-8 0.00001984979427094766 -0.000019849794270947525
          0.0007996335553165582 -0.00009841451909892472 -0.0000984145190989247 -1.0670192552593544e-7 -0.000003252315995760002 0.0000032523159957597715
          0.0007996335553165582 -0.0000984145190989247 -0.0000984145190989247 -9.688352924527332e-21 7.940933880509061e-21 0.000003252315995759812
          0.0007996335553165582 -0.0000984145190989247 -0.0000984145190989247 1.0670192552591606e-7 0.0000032523159957600175 0.0000032523159957598524
          0.0007996335553165582 -0.00009841451909892474 -0.00009841451909892472 -1.2862658525199573e-20 -0.0000032523159957599964 -1.852884572118781e-20
          0.0007996335553165582 -0.00009841451909892472 -0.00009841451909892472 -1.1523659908629361e-20 2.1506695926378708e-20 -5.260868695837253e-20
          0.0007996335553165582 -0.00009841451909892472 -0.00009841451909892472 -1.0184661292059147e-20 0.0000032523159957600404 -8.80120171756421e-20
          0.0007996335553165583 -0.00009841451909892474 -0.00009841451909892474 1.0670192552590972e-7 -0.0000032523159957599913 -0.0000032523159957598087
          0.0007996335553165583 -0.00009841451909892474 -0.00009841451909892474 -1.3369306650388302e-20 3.5072457972248355e-20 -0.000003252315995759918
          0.0007996335553165583 -0.00009841451909892474 -0.00009841451909892474 -1.0670192552593643e-7 0.0000032523159957600616 -0.000003252315995760028
          0.0008185178880201659 -0.00012705967226545986 -0.00012705967226545983 -3.107406178138513e-7 -1.2819542876670819e-7 1.2819542876631643e-7
          0.000818517888020166 -0.00012705967226545988 -0.00012705967226545986 -5.469731800506893e-21 3.771943593241805e-20 1.281954287664316e-7
          0.0008185178880201659 -0.00012705967226545983 -0.0001270596722654598 3.107406178138404e-7 1.2819542876678362e-7 1.2819542876654672e-7
          0.0008185178880201662 -0.00012705967226545988 -0.00012705967226545988 7.134432783269861e-22 -1.2819542876680946e-7 -1.8992066864217508e-19
          0.0008185178880201661 -0.00012705967226545986 -0.00012705967226545986 -5.355994466280851e-21 -2.216844041642113e-20 -1.4062070413401463e-19
          0.0008185178880201662 -0.00012705967226545988 -0.00012705967226545986 -1.142543221088869e-20 1.2819542876676512e-7 -9.06589951358118e-20
          0.0008185178880201662 -0.00012705967226545986 -0.00012705967226545986 3.107406178138527e-7 -1.2819542876691068e-7 -1.2819542876669627e-7
          0.0008185178880201662 -0.00012705967226545988 -0.00012705967226545988 -5.242257132054811e-21 -8.205631676526031e-20 -1.2819542876671284e-7
          0.0008185178880201662 -0.00012705967226545986 -0.00012705967226545986 -3.107406178138632e-7 1.2819542876674657e-7 -1.2819542876672804e-7
          0.0008003664446834413 -0.00009869727028793085 -0.00009869727028793085 -1.0946074883562463e-7 0.0000030396402273420806 -0.000003039640227342232
          0.0008003664446834415 -0.00009869727028793085 -0.00009869727028793085 1.7898120504116127e-20 4.830734777309679e-20 -0.000003039640227342211
          0.0008003664446834413 -0.00009869727028793085 -0.00009869727028793085 1.0946074883566043e-7 -0.000003039640227341984 -0.0000030396402273421907
          0.0008003664446834413 -0.00009869727028793085 -0.00009869727028793085 1.9759276882360437e-20 0.000003039640227342058 -1.065408628968299e-19
          0.0008003664446834413 -0.00009869727028793085 -0.00009869727028793085 1.253437121959259e-20 -5.227781471335132e-20 1.3565762045869648e-20
          0.0008003664446834415 -0.00009869727028793085 -0.00009869727028793087 5.3094655568247434e-21 -0.0000030396402273421636 1.336723869885692e-19
          0.0008003664446834413 -0.00009869727028793082 -0.00009869727028793087 1.0946074883566415e-7 0.000003039640227342037 0.0000030396402273420188
          0.0008003664446834413 -0.00009869727028793085 -0.00009869727028793087 7.170621935069054e-21 -1.5286297719979944e-19 0.000003039640227342239
          0.0008003664446834413 -0.00009869727028793085 -0.00009869727028793085 -1.0946074883564982e-7 -0.0000030396402273423428 0.000003039640227342458
          0.0007819732042864567 -0.0000701934927158988 -0.00007019349271589881 9.31985317974427e-8 0.000019680833591645287 -0.000019680833591645243
          0.0007819732042864567 -0.0000701934927158988 -0.00007019349271589883 2.719356263768077e-20 7.146840492458155e-20 -0.000019680833591645297
          0.0007819732042864567 -0.0000701934927158988 -0.00007019349271589883 -9.319853179738831e-8 -0.000019680833591645144 -0.00001968083359164535
          0.0007819732042864567 -0.00007019349271589879 -0.00007019349271589883 2.0327963553490643e-20 0.000019680833591645395 -1.3234889800848435e-21
          0.0007819732042864567 -0.00007019349271589879 -0.00007019349271589881 1.9113042028803387e-20 -1.786710123114539e-20 1.1977575269767834e-19
          0.0007819732042864567 -0.0000701934927158988 -0.00007019349271589883 1.7898120504116127e-20 -0.00001968083359164543 2.4219848335552636e-19
          0.0007819732042864567 -0.00007019349271589877 -0.00007019349271589883 -9.319853179740204e-8 0.0000196808335916455 0.00001968083359164524
          0.0007819732042864567 -0.00007019349271589879 -0.00007019349271589883 1.1032521419926e-20 -1.0720260738687233e-19 0.000019680833591645537
          0.0007819732042864567 -0.0000701934927158988 -0.00007019349271589881 9.31985317974241e-8 -0.000019680833591645714 0.000019680833591645836
          <InformationKey name="L2_NORM_RANGE" location="vtkDataArray" length="2">
            <Value index="0">
              0.00078722423513
            </Value>
            <Value index="1">
              0.00083800953638
            </Value>
          </InformationKey>
        </DataArray>
        <DataArray type="Float64" Name="nodal_stress_voigt" NumberOfComponents="6" format="ascii" RangeMin="4.794260427290419" RangeMax="6.222992272293911">
          4.052999920171553 -1.810818142687487 -1.8108181426874863 0.0025970546632283413 -0.08482966800810735 0.08482966800810673
          4.052999920171553 -1.8108181426874868 -1.8108181426874868 -1.478919525906008e-16 -4.878909776184768e-17 0.08482966800810642
          4.052999920171552 -1.8108181426874863 -1.810818142687487 -0.002597054663228637 0.08482966800810725 0.0848296680081061
          4.052999920171552 -1.81081814268748 -1.8108181426874796 1.1958749962515109e-14 -0.08482966800885029 -7.42434542663761e-13
          4.052999920171552 -1.8108181426874836 -1.8108181426874836 5.891368258037833e-15 -3.7146663783155216e-13 -3.710058519082458e-13
          4.052999920171552 -1.810818142687487 -1.8108181426874876 -1.7601344643944354e-16 0.08482966800810735 4.1741783640691906e-16
          4.052999920171551 -1.8108181426874728 -1.8108181426874732 -0.002597054663204424 -0.08482966800959323 -0.0848296680095916
          4.052999920171551 -1.81081814268748 -1.8108181426874808 1.1930628468666266e-14 -7.428844865653425e-13 -0.08482966800884842
          4.052999920171552 -1.8108181426874874 -1.810818142687488 0.002597054663228285 0.08482966800810746 -0.08482966800810526
          4.121160314578201 -2.5303064010068503 -2.530306401006844 -0.00022262121061430935 -0.012369777624563089 0.012369777624470975
          4.121160314578202 -2.5303064010068503 -2.5303064010068446 -3.7608262858090915e-16 -7.535205098774252e-16 0.012369777624470417
          4.121160314578202 -2.5303064010068503 -2.5303064010068446 0.0002226212106135572 0.012369777624561581 0.012369777624469853
          4.121160314578202 -2.5303064010068472 -2.530306401006841 5.655384878932784e-15 -0.012369777624933374 -3.702441998820747e-13
          4.121160314578202 -2.530306401006849 -2.530306401006843 2.70910782685079e-15 -1.8571705588318877e-13 -1.8528473026691018e-13
          4.121160314578201 -2.530306401006851 -2.5303064010068455 -2.3716922523120395e-16 0.012369777624561934 -3.3068166260807866e-16
          4.121160314578201 -2.530306401006844 -2.530306401006838 0.00022262121062562013 -0.012369777625303653 -0.012369777625211464
          4.121160314578201 -2.5303064010068472 -2.530306401006842 5.794298282282489e-15 -3.706805912565001e-13 -0.012369777624840988
          4.121160314578201 -2.530306401006851 -2.5303064010068455 -0.00022262121061403153 0.012369777624562293 -0.012369777624470514
          4.190302126786744 -3.253228447307405 -3.2532284473073987 -0.0030491890903254653 -0.0006888330147581503 0.000688833014665321
          4.190302126786745 -3.253228447307405 -3.253228447307398 1.3223878372534133e-15 -5.66522740177988e-14 0.0006888330146088152
          4.1903021267867455 -3.2532284473074045 -3.2532284473073974 0.00304918909032811 0.0006888330146448458 0.0006888330145523091
          4.190302126786744 -3.2532284473074062 -3.253228447307399 4.760325163569166e-16 -0.0006888330147271667 3.024924061234556e-14
          4.190302126786744 -3.2532284473074045 -3.2532284473073982 5.786929095641377e-16 -2.875168636159996e-14 2.302574363816089e-15
          4.190302126786744 -3.253228447307405 -3.253228447307398 6.813533027713589e-16 0.0006888330146696633 -2.564138137928217e-14
          4.190302126786744 -3.253228447307406 -3.2532284473073987 0.0030491890903264177 -0.0006888330146961882 -0.0006888330146048225
          4.190302126786744 -3.2532284473074062 -3.253228447307399 -1.6500201812513766e-16 -8.510987054011207e-16 -0.0006888330146042073
          4.190302126786743 -3.2532284473074045 -3.2532284473073987 -0.0030491890903267473 0.000688833014694486 -0.0006888330146035919
          4.124299989230303 -2.537206855316998 -2.5372068553169855 -0.0002507074791272071 0.011203240890061885 -0.011203240890073967
          4.1242999892303045 -2.5372068553169957 -2.5372068553169846 2.57370961023219e-15 -5.103610676432388e-14 -0.01120324089011587
          4.124299989230305 -2.537206855316994 -2.5372068553169833 0.00025070747913235453 -0.011203240890163956 -0.011203240890157767
          4.1242999892303045 -2.5372068553169913 -2.537206855316986 2.698223453478572e-15 0.01120324089008344 -1.93638508005911e-14
          4.124299989230304 -2.5372068553169926 -2.5372068553169846 1.1319748307106464e-15 -2.5165687676104152e-14 -2.0515815608856945e-14
          4.1242999892303045 -2.537206855316994 -2.5372068553169824 -4.3427379205727954e-16 -0.01120324089013377 -2.166506991169158e-14
          4.1242999892303045 -2.5372068553169846 -2.537206855316986 0.00025070747913260357 0.011203240890104993 0.01120324089003524
          4.1242999892303045 -2.537206855316989 -2.5372068553169838 -3.097599488108975e-16 7.047314121155775e-16 0.01120324089007484
          4.124299989230303 -2.5372068553169935 -2.5372068553169815 -0.0002507074791332231 -0.011203240890103583 0.011203240890114435
          4.057316433871971 -1.8177514753454003 -1.8177514753453754 0.002554666137939557 0.08387426056862121 -0.08387426056864335
          4.057316433871972 -1.817751475345397 -1.8177514753453754 1.8985396479757876e-15 9.774082584956818e-15 -0.08387426056861494
          4.057316433871973 -1.8177514753453938 -1.8177514753453756 -0.00255466613793576 -0.08387426056860167 -0.08387426056858652
          4.057316433871973 -1.8177514753453872 -1.8177514753453767 3.796232263004321e-15 0.08387426056860475 -9.728003992626183e-14
          4.057316433871973 -1.8177514753453898 -1.8177514753453743 6.334112379567655e-16 7.204523436166174e-15 -4.520580958178308e-14
          4.057316433871974 -1.8177514753453934 -1.8177514753453723 -2.5294097870907905e-15 -0.08387426056859033 6.873841773558094e-15
          4.057316433871976 -1.8177514753453736 -1.8177514753453785 -0.0025546661379319646 0.08387426056858827 0.08387426056844878
          4.057316433871976 -1.817751475345383 -1.8177514753453736 -6.317171720622569e-16 4.634964287375529e-15 0.08387426056852453
          4.057316433871975 -1.8177514753453927 -1.8177514753453687 0.0025546661379307013 -0.083874260568579 0.08387426056860027
          <InformationKey name="L2_NORM_RANGE" location="vtkDataArray" length="2">
            <Value index="0">
              4.7942604273
            </Value>
            <Value index="1">
              6.2229922723
            </Value>
          </InformationKey>
        </DataArray>
        <DataArray type="Float64" Name="nodal_plastic_strain_voigt" NumberOfComponents="6" format="ascii" RangeMin="0" RangeMax="0">
          0 0 0 0 0 0
          0 0 0 0 0 0
          0 0 0 0 0 0
          0 0 0 0 0 0
          0 0 0 0 0 0
          0 0 0 0 0 0
          0 0 0 0 0 0
          0 0 0 0 0 0
          0 0 0 0 0 0
          0 0 0 0 0 0
          0 0 0 0 0 0
          0 0 0 0 0 0
          0 0 0 0 0 0
          0 0 0 0 0 0
          0 0 0 0 0 0
          0 0 0 0 0 0
          0 0 0 0 0 0
          0 0 0 0 0 0
          0 0 0 0 0 0
          0 0 0 0 0 0
          0 0 0 0 0 0
          0 0 0 0 0 0
          0 0 0 0 0 0
          0 0 0 0 0 0
          0 0 0 0 0 0
          0 0 0 0 0 0
          0 0 0 0 0 0
          0 0 0 0 0 0
          0 0 0 0 0 0
          0 0 0 0 0 0
          0 0 0 0 0 0
          0 0 0 0 0 0
          0 0 0 0 0 0
          0 0 0 0 0 0
          0 0 0 0 0 0
          0 0 0 0 0 0
          0 0 0 0 0 0
          0 0 0 0 0 0
          0 0 0 0 0 0
          0 0 0 0 0 0
          0 0 0 0 0 0
          0 0 0 0 0 0
          0 0 0 0 0 0
          0 0 0 0 0 0
          0 0 0 0 0 0
          <InformationKey name="L2_NORM_RANGE" location="vtkDataArray" length="2">
            <Value index="0">
              0
            </Value>
            <Value index="1">
              0
            </Value>
          </InformationKey>
        </DataArray>
        <DataArray type="Float64" Name="nodal_equivalent_plastic_strain" format="ascii" RangeMin="0" RangeMax="0">
          0 0 0 0 0 0
          0 0 0 0 0 0
          0 0 0 0 0 0
          0 0 0 0 0 0
          0 0 0 0 0 0
          0 0 0 0 0 0
          0 0 0 0 0 0
          0 0 0
        </DataArray>
        <DataArray type="Float64" Name="nodal_strain_xx" format="ascii" RangeMin="0.0007809910196732102" RangeMax="0.0008185178880201662">
          0.0007809910196732103 0.0007809910196732103 0.0007809910196732103 0.0007809910196732102 0.0007809910196732102 0.0007809910196732102
          0.0007809910196732102 0.0007809910196732102 0.0007809910196732102 0.0007996335553165582 0.0007996335553165582 0.0007996335553165582
          0.0007996335553165582 0.0007996335553165582 0.0007996335553165582 0.0007996335553165583 0.0007996335553165583 0.0007996335553165583
          0.0008185178880201659 0.000818517888020166 0.0008185178880201659 0.0008185178880201662 0.0008185178880201661 0.0008185178880201662
          0.0008185178880201662 0.0008185178880201662 0.0008185178880201662 0.0008003664446834413 0.0008003664446834415 0.0008003664446834413
          0.0008003664446834413 0.0008003664446834413 0.0008003664446834415 0.0008003664446834413 0.0008003664446834413 0.0008003664446834413
          0.0007819732042864567 0.0007819732042864567 0.0007819732042864567 0.0007819732042864567 0.0007819732042864567 0.0007819732042864567
          0.0007819732042864567 0.0007819732042864567 0.0007819732042864567
        </DataArray>
        <DataArray type="Float64" Name="nodal_strain_yy" format="ascii" RangeMin="-0.00012705967226545988" RangeMax="-0.00006991074152689265">
          -0.00006991074152689265 -0.00006991074152689266 -0.00006991074152689266 -0.00006991074152689266 -0.00006991074152689266 -0.00006991074152689266
          -0.00006991074152689266 -0.00006991074152689266 -0.00006991074152689266 -0.00009841451909892472 -0.0000984145190989247 -0.0000984145190989247
          -0.00009841451909892474 -0.00009841451909892472 -0.00009841451909892472 -0.00009841451909892474 -0.00009841451909892474 -0.00009841451909892474
          -0.00012705967226545986 -0.00012705967226545988 -0.00012705967226545983 -0.00012705967226545988 -0.00012705967226545986 -0.00012705967226545988
          -0.00012705967226545986 -0.00012705967226545988 -0.00012705967226545986 -0.00009869727028793085 -0.00009869727028793085 -0.00009869727028793085
          -0.00009869727028793085 -0.00009869727028793085 -0.00009869727028793085 -0.00009869727028793082 -0.00009869727028793085 -0.00009869727028793085
          -0.0000701934927158988 -0.0000701934927158988 -0.0000701934927158988 -0.00007019349271589879 -0.00007019349271589879 -0.0000701934927158988
          -0.00007019349271589877 -0.00007019349271589879 -0.0000701934927158988
        </DataArray>
        <DataArray type="Float64" Name="nodal_strain_zz" format="ascii" RangeMin="-0.00012705967226545988" RangeMax="-0.00006991074152689262">
          -0.00006991074152689262 -0.00006991074152689264 -0.00006991074152689265 -0.00006991074152689266 -0.00006991074152689266 -0.00006991074152689266
          -0.0000699107415268927 -0.00006991074152689269 -0.00006991074152689268 -0.0000984145190989247 -0.0000984145190989247 -0.0000984145190989247
          -0.00009841451909892472 -0.00009841451909892472 -0.00009841451909892472 -0.00009841451909892474 -0.00009841451909892474 -0.00009841451909892474
          -0.00012705967226545983 -0.00012705967226545986 -0.0001270596722654598 -0.00012705967226545988 -0.00012705967226545986 -0.00012705967226545986
          -0.00012705967226545986 -0.00012705967226545988 -0.00012705967226545986 -0.00009869727028793085 -0.00009869727028793085 -0.00009869727028793085
          -0.00009869727028793085 -0.00009869727028793085 -0.00009869727028793087 -0.00009869727028793087 -0.00009869727028793087 -0.00009869727028793085
          -0.00007019349271589881 -0.00007019349271589883 -0.00007019349271589883 -0.00007019349271589883 -0.00007019349271589881 -0.00007019349271589883
          -0.00007019349271589883 -0.00007019349271589883 -0.00007019349271589881
        </DataArray>
        <DataArray type="Float64" Name="nodal_strain_yz" format="ascii" RangeMin="-3.107406178138632e-7" RangeMax="3.107406178138527e-7">
          9.595735510713972e-8 1.6543612251060546e-22 -9.595735510713939e-8 -7.961613395822888e-21 -6.38480035314368e-21 -4.807987310464472e-21
          -9.595735510715564e-8 -1.2935036828797966e-20 9.595735510712977e-8 -1.0670192552593544e-7 -9.688352924527332e-21 1.0670192552591606e-7
          -1.2862658525199573e-20 -1.1523659908629361e-20 -1.0184661292059147e-20 1.0670192552590972e-7 -1.3369306650388302e-20 -1.0670192552593643e-7
          -3.107406178138513e-7 -5.469731800506893e-21 3.107406178138404e-7 7.134432783269861e-22 -5.355994466280851e-21 -1.142543221088869e-20
          3.107406178138527e-7 -5.242257132054811e-21 -3.107406178138632e-7 -1.0946074883562463e-7 1.7898120504116127e-20 1.0946074883566043e-7
          1.9759276882360437e-20 1.253437121959259e-20 5.3094655568247434e-21 1.0946074883566415e-7 7.170621935069054e-21 -1.0946074883564982e-7
          9.31985317974427e-8 2.719356263768077e-20 -9.319853179738831e-8 2.0327963553490643e-20 1.9113042028803387e-20 1.7898120504116127e-20
          -9.319853179740204e-8 1.1032521419926e-20 9.31985317974241e-8
        </DataArray>
        <DataArray type="Float64" Name="nodal_strain_xz" format="ascii" RangeMin="-0.000019849794270947718" RangeMax="0.00001984979427094766">
          -0.000019849794270947718 -3.441071348220594e-20 0.000019849794270947647 -0.000019849794270947654 6.617444900424219e-22 0.000019849794270947657
          -0.00001984979427094759 3.5734202462290784e-20 0.00001984979427094766 -0.000003252315995760002 7.940933880509061e-21 0.0000032523159957600175
          -0.0000032523159957599964 2.1506695926378708e-20 0.0000032523159957600404 -0.0000032523159957599913 3.5072457972248355e-20 0.0000032523159957600616
          -1.2819542876670819e-7 3.771943593241805e-20 1.2819542876678362e-7 -1.2819542876680946e-7 -2.216844041642113e-20 1.2819542876676512e-7
          -1.2819542876691068e-7 -8.205631676526031e-20 1.2819542876674657e-7 0.0000030396402273420806 4.830734777309679e-20 -0.000003039640227341984
          0.000003039640227342058 -5.227781471335132e-20 -0.0000030396402273421636 0.000003039640227342037 -1.5286297719979944e-19 -0.0000030396402273423428
          0.000019680833591645287 7.146840492458155e-20 -0.000019680833591645144 0.000019680833591645395 -1.786710123114539e-20 -0.00001968083359164543
          0.0000196808335916455 -1.0720260738687233e-19 -0.000019680833591645714
        </DataArray>
        <DataArray type="Float64" Name="nodal_strain_xy" format="ascii" RangeMin="-0.000019849794270947525" RangeMax="0.000019849794270947694">
          0.000019849794270947694 0.00001984979427094764 0.000019849794270947586 1.3102540902839954e-19 8.13945722752179e-20 3.0440246541951406e-20
          -0.00001984979427094743 -0.000019849794270947477 -0.000019849794270947525 0.0000032523159957597715 0.000003252315995759812 0.0000032523159957598524
          -1.852884572118781e-20 -5.260868695837253e-20 -8.80120171756421e-20 -0.0000032523159957598087 -0.000003252315995759918 -0.000003252315995760028
          1.2819542876631643e-7 1.281954287664316e-7 1.2819542876654672e-7 -1.8992066864217508e-19 -1.4062070413401463e-19 -9.06589951358118e-20
          -1.2819542876669627e-7 -1.2819542876671284e-7 -1.2819542876672804e-7 -0.000003039640227342232 -0.000003039640227342211 -0.0000030396402273421907
          -1.065408628968299e-19 1.3565762045869648e-20 1.336723869885692e-19 0.0000030396402273420188 0.000003039640227342239 0.000003039640227342458
          -0.000019680833591645243 -0.000019680833591645297 -0.00001968083359164535 -1.3234889800848435e-21 1.1977575269767834e-19 2.4219848335552636e-19
          0.00001968083359164524 0.000019680833591645537 0.000019680833591645836
        </DataArray>
        <DataArray type="Float64" Name="nodal_strain_trace" format="ascii" RangeMin="0.0005643985434892463" RangeMax="0.0006415862188546592">
          0.000641169536619425 0.0006411695366194249 0.0006411695366194249 0.0006411695366194248 0.0006411695366194248 0.0006411695366194248
          0.0006411695366194248 0.0006411695366194248 0.0006411695366194248 0.0006028045171187087 0.0006028045171187088 0.0006028045171187088
          0.0006028045171187087 0.0006028045171187087 0.0006028045171187087 0.0006028045171187087 0.0006028045171187087 0.0006028045171187087
          0.0005643985434892463 0.0005643985434892463 0.0005643985434892463 0.0005643985434892465 0.0005643985434892464 0.0005643985434892465
          0.0005643985434892465 0.0005643985434892465 0.0005643985434892465 0.0006029719041075796 0.0006029719041075798 0.0006029719041075796
          0.0006029719041075796 0.0006029719041075796 0.0006029719041075798 0.0006029719041075796 0.0006029719041075796 0.0006029719041075796
          0.0006415862188546592 0.0006415862188546591 0.0006415862188546591 0.0006415862188546591 0.0006415862188546592 0.0006415862188546591
          0.0006415862188546591 0.0006415862188546591 0.0006415862188546592
        </DataArray>
        <DataArray type="Float64" Name="nodal_strain_volumetric_strain" format="ascii" RangeMin="0.0005643985434892463" RangeMax="0.0006415862188546592">
          0.000641169536619425 0.0006411695366194249 0.0006411695366194249 0.0006411695366194248 0.0006411695366194248 0.0006411695366194248
          0.0006411695366194248 0.0006411695366194248 0.0006411695366194248 0.0006028045171187087 0.0006028045171187088 0.0006028045171187088
          0.0006028045171187087 0.0006028045171187087 0.0006028045171187087 0.0006028045171187087 0.0006028045171187087 0.0006028045171187087
          0.0005643985434892463 0.0005643985434892463 0.0005643985434892463 0.0005643985434892465 0.0005643985434892464 0.0005643985434892465
          0.0005643985434892465 0.0005643985434892465 0.0005643985434892465 0.0006029719041075796 0.0006029719041075798 0.0006029719041075796
          0.0006029719041075796 0.0006029719041075796 0.0006029719041075798 0.0006029719041075796 0.0006029719041075796 0.0006029719041075796
          0.0006415862188546592 0.0006415862188546591 0.0006415862188546591 0.0006415862188546591 0.0006415862188546592 0.0006415862188546591
          0.0006415862188546591 0.0006415862188546591 0.0006415862188546592
        </DataArray>
        <DataArray type="Float64" Name="nodal_strain_deviatoric_norm" format="ascii" RangeMin="0.0006947583787252644" RangeMax="0.0007720608868850597">
          0.0006950418863244603 0.0006949001453268359 0.0006950418863244603 0.0006949001453268358 0.0006947583787252644 0.0006949001453268358
          0.0006950418863244602 0.0006949001453268357 0.0006950418863244602 0.0007332603988758412 0.0007332567886404047 0.0007332603988758411
          0.0007332567886404048 0.0007332531822689699 0.0007332567886404048 0.0007332603988758413 0.0007332567886404049 0.0007332603988758413
          0.0007720608868850595 0.0007720608502966881 0.0007720608868850595 0.0007720608502966883 0.0007720608449751944 0.0007720608502966883
          0.0007720608868850597 0.0007720608502966883 0.0007720608868850597 0.0007340887465347469 0.0007340855958890438 0.0007340887465347469
          0.0007340855958890437 0.0007340824493103049 0.0007340855958890438 0.0007340887465347469 0.0007340855958890437 0.0007340887465347469
          0.0006960694835099305 0.000695930351346575 0.0006960694835099306 0.000695930351346575 0.0006957911944828968 0.000695930351346575
          0.0006960694835099306 0.000695930351346575 0.0006960694835099305
        </DataArray>
        <DataArray type="Float64" Name="nodal_strain_equivalent_strain" format="ascii" RangeMin="0.0005672678408000686" RangeMax="0.0006303850744096791">