<?xml version="1.0"?>
<VTKFile type="UnstructuredGrid" version="0.1" byte_order="LittleEndian" header_type="UInt32" compressor="vtkZLibDataCompressor">
  <UnstructuredGrid>
    <Piece NumberOfPoints="128" NumberOfCells="128">
      <PointData Scalars="qp_stress_von_mises" Vectors="displacement">
        <DataArray type="Float64" Name="displacement" NumberOfComponents="3" format="ascii" RangeMin="0.000041071870914753245" RangeMax="0.0007588931011264236">
          0.00004145839949077921 0.0000023312814009764654 -0.0000023312814009764527 0.000041261019166467225 0.0000023294347008164044 -6.246649687213377e-7
          0.00004126101916646722 6.246649687213498e-7 -0.000002329434700816392 0.00004106238429138741 6.241701469047988e-7 -6.241701469047866e-7
          0.00015472485330007566 0.000008700460635184521 -0.000008700460635184472 0.0001539882199013289 0.000008693568656360828 -0.000002331281400976456
          0.0001539882199013289 0.000002331281400976501 -0.000008693568656360783 0.00015324690445537594 0.000002329434700816439 -0.000002329434700816394
          0.000041261019166467225 0.0000023294347008164053 6.246649687213356e-7 0.00004145839949077921 0.0000023312814009764667 0.000002331281400976451
          0.000041062384291387416 6.24170146904799e-7 6.241701469047856e-7 0.000041261019166467225 6.246649687213507e-7 0.0000023294347008163913
          0.00015398821990132892 0.000008693568656360828 0.0000023312814009764476 0.0001547248533000757 0.000008700460635184525 0.000008700460635184467
          0.00015324690445537594 0.0000023294347008164404 0.00000232943470081639 0.0001539882199013289 0.000002331281400976505 0.00000869356865636078
          0.000041261019166467225 -6.246649687213242e-7 -0.0000023294347008163926 0.00004106238429138741 -6.241701469047735e-7 -6.241701469047866e-7
          0.00004145839949077921 -0.000002331281400976441 -0.000002331281400976455 0.000041261019166467225 -0.00000232943470081638 -6.246649687213374e-7
          0.0001539882199013289 -0.0000023312814009764057 -0.000008693568656360784 0.00015324690445537594 -0.000002329434700816345 -0.000002329434700816394
          0.0001547248533000757 -0.000008700460635184428 -0.00000870046063518448 0.0001539882199013289 -0.000008693568656360735 -0.0000023312814009764544
          0.00004106238429138741 -6.241701469047733e-7 6.241701469047861e-7 0.000041261019166467225 -6.246649687213232e-7 0.000002329434700816392
          0.00004126101916646722 -0.0000023294347008163794 6.246649687213373e-7 0.00004145839949077921 -0.00000233128140097644 0.000002331281400976454
          0.00015324690445537597 -0.0000023294347008163443 0.0000023294347008163917 0.0001539882199013289 -0.000002331281400976402 0.000008693568656360783
          0.0001539882199013289 -0.000008693568656360733 0.0000023312814009764544 0.0001547248533000757 -0.000008700460635184425 0.000008700460635184479
          0.00023921777411109758 0.000010596812293645758 -0.000010596812293645702 0.00023847944566199032 0.000010597720674170551 -0.0000028394072964265633
          0.00023847944566199032 0.000002839407296426616 -0.000010597720674170497 0.00023773643902451715 0.0000028396506962546532 -0.0000028396506962546
          0.0003567902728374067 0.000009408562139371305 -0.000009408562139371266 0.000356586566499028 0.000009435826776617087 -0.00000252101662718257
          0.00035658656649902807 0.0000025210166271826092 -0.000009435826776617045 0.0003563816200112693 0.000002528322164714546 -0.000002528322164714503
          0.00023847944566199035 0.000010597720674170551 0.000002839407296426553 0.0002392177741110976 0.000010596812293645763 0.000010596812293645694
          0.00023773643902451713 0.000002839650696254655 0.0000028396506962545948 0.00023847944566199032 0.0000028394072964266213 0.000010597720674170494
          0.000356586566499028 0.000009435826776617089 0.000002521016627182561 0.0003567902728374067 0.000009408562139371316 0.000009408562139371255
          0.00035638162001126934 0.0000025283221647145476 0.0000025283221647144964 0.00035658656649902807 0.000002521016627182618 0.000009435826776617036
          0.00023847944566199032 -0.0000028394072964265036 -0.000010597720674170499 0.00023773643902451713 -0.0000028396506962545423 -0.0000028396506962546
          0.00023921777411109763 -0.000010596812293645651 -0.000010596812293645709 0.00023847944566199038 -0.00001059772067417044 -0.0000028394072964265604
          0.000356586566499028 -0.000002521016627182523 -0.000009435826776617042 0.0003563816200112693 -0.000002528322164714455 -0.0000025283221647145023
          0.0003567902728374068 -0.00000940856213937122 -0.00000940856213937126 0.0003565865664990281 -0.000009435826776616998 -0.0000025210166271825656
          0.00023773643902451715 -0.0000028396506962545406 0.0000028396506962545965 0.00023847944566199032 -0.000002839407296426498 0.000010597720674170497
          0.00023847944566199035 -0.000010597720674170438 0.0000028394072964265608 0.0002392177741110976 -0.000010596812293645644 0.000010596812293645707
          0.0003563816200112693 -0.0000025283221647144527 0.0000025283221647144976 0.000356586566499028 -0.000002521016627182515 0.000009435826776617038
          0.00035658656649902807 -0.000009435826776616994 0.000002521016627182565 0.0003567902728374068 -0.00000940856213937121 0.000009408562139371261
          0.000442874568519559 0.00000941796063221516 -0.000009417960632215137 0.00044307255536520925 0.000009445278363040297 -0.000002523534945750159
          0.00044307255536520925 0.0000025235349457501837 -0.000009445278363040262 0.00044327171163195396 0.000002530854709663834 -0.0000025308547096638
          0.000560488739330672 0.000010631887946453595 -0.0000106318879464536 0.0005612495502534149 0.000010632994474914092 -0.000002848805789270451
          0.0005612495502534149 0.000002848805789270448 -0.00001063299447491407 0.0005620146756272271 0.0000028491022826778474 -0.0000028491022826778267
          0.00044307255536520925 0.0000094452783630403 0.000002523534945750138 0.000442874568519559 0.000009417960632215176 0.000009417960632215113
          0.00044327171163195396 0.000002530854709663837 0.0000025308547096637855 0.00044307255536520925 0.0000025235349457501985 0.000009445278363040246
          0.0005612495502534149 0.000010632994474914099 0.0000028488057892703944 0.0005604887393306719 0.000010631887946453626 0.000010631887946453545
          0.000562014675627227 0.0000028491022826778546 0.0000028491022826777953 0.0005612495502534149 0.000002848805789270476 0.000010632994474914038
          0.00044307255536520925 -0.0000025235349457501134 -0.000009445278363040258 0.00044327171163195396 -0.000002530854709663753 -0.000002530854709663797
          0.0004428745685195591 -0.00000941796063221509 -0.00000941796063221512 0.0004430725553652093 -0.000009445278363040214 -0.0000025235349457501473
          0.0005612495502534149 -0.0000028488057892703944 -0.000010632994474914062 0.0005620146756272271 -0.0000028491022826777746 -0.0000028491022826778178
          0.000560488739330672 -0.000010631887946453541 -0.00001063188794645357 0.0005612495502534149 -0.000010632994474914018 -0.00000284880578927042
          0.00044327171163195396 -0.000002530854709663749 0.0000025308547096637885 0.00044307255536520925 -0.0000025235349457500994 0.00000944527836304025
          0.0004430725553652093 -0.000009445278363040209 0.0000025235349457501486 0.00044287456851955907 -0.000009417960632215074 0.000009417960632215123
          0.0005620146756272271 -0.000002849102282677767 0.0000028491022826778034 0.000561249550253415 -0.000002848805789270368 0.000010632994474914045
          0.000561249550253415 -0.000010632994474914011 0.0000028488057892704253 0.000560488739330672 -0.000010631887946453517 0.000010631887946453575
          0.0006450557108437997 0.000008735536287992359 -0.000008735536287992369 0.0006458182168169032 0.00000872884245710437 -0.0000023406798938203435
          0.0006458182168169032 0.0000023406798938203337 -0.000008728842457104356 0.0006465850333822356 0.000002338886287239633 -0.00000233888628723962
          0.0007584828028487819 0.0000023406798938203206 -0.0000023406798938203227 0.0007586871157084988 0.0000023388862872396126 -6.27183287288927e-7
          0.000758687115708499 6.271832872889245e-7 -0.000002338886287239609 0.0007588925835879225 6.267026918540864e-7 -6.267026918540831e-7
          0.0006458182168169032 0.000008728842457104376 0.000002340679893820289 0.0006450557108437998 0.000008735536287992386 0.000008735536287992317
          0.0006465850333822355 0.0000023388862872396397 0.0000023388862872395906 0.0006458182168169032 0.0000023406798938203596 0.000008728842457104325
          0.000758687115708499 0.0000023388862872396143 6.271832872889125e-7 0.0007584828028487819 0.0000023406798938203274 0.0000023406798938203087
          0.0007588925835879226 6.267026918540883e-7 6.267026918540752e-7 0.0007586871157084988 6.271832872889312e-7 0.000002338886287239601
          0.0006458182168169032 -0.0000023406798938202965 -0.000008728842457104349 0.0006465850333822355 -0.000002338886287239578 -0.0000023388862872396117
          0.0006450557108437998 -0.00000873553628799232 -0.000008735536287992342 0.0006458182168169032 -0.000008728842457104313 -0.0000023406798938203134
          0.000758687115708499 -6.271832872889144e-7 -0.0000023388862872396075 0.0007588925835879225 -6.267026918540716e-7 -6.267026918540809e-7
          0.0007584828028487819 -0.00000234067989382031 -0.0000023406798938203155 0.0007586871157084988 -0.0000023388862872395973 -6.27183287288919e-7
          0.0006465850333822355 -0.000002338886287239571 0.0000023388862872395986 0.0006458182168169032 -0.0000023406798938202715 0.000008728842457104332
          0.0006458182168169032 -0.000008728842457104307 0.0000023406798938203193 0.0006450557108437999 -0.000008735536287992296 0.000008735536287992345
          0.0007588925835879226 -6.267026918540699e-7 6.267026918540773e-7 0.0007586871157084988 -6.271832872889077e-7 0.0000023388862872396033
          0.000758687115708499 -0.000002338886287239596 6.271832872889206e-7 0.000758482802848782 -0.0000023406798938203037 0.000002340679893820317
          <InformationKey name="L2_NORM_RANGE" location="vtkDataArray" length="2">
            <Value index="0">
              4.1071870915e-05
            </Value>
            <Value index="1">
              0.00075889310113
            </Value>
          </InformationKey>
        </DataArray>
        <DataArray type="Float64" Name="qp_strain_voigt" NumberOfComponents="6" format="ascii" RangeMin="0.0007784488410930678" RangeMax="0.0008447638909264145">
          0.0007847330111634192 -0.000029559463696977902 -0.000029559463696977882 6.397157007142701e-8 -0.000040708240643415775 0.000040708240643415856
          0.0007809969562711844 -0.0000295360484772118 -0.000029559463696977885 4.055635030531567e-8 -0.000008405057977563329 0.000040651556470775154
          0.0007809969562711844 -0.000029559463696977902 -0.000029536048477211774 4.055635030531028e-8 -0.000040651556470775385 0.00000840505797756326
          0.0007772371549870533 -0.00002953604847721178 -0.00002953604847721177 1.7141130539203168e-8 -0.000008373962432951478 0.000008373962432951188
          0.0007847330111634194 -0.00011031742036160924 -0.00011031742036160918 2.38745149746484e-7 -0.00003136810341282847 0.00003136810341282849
          0.0007809969562711845 -0.0001102300335717717 -0.00011031742036160918 1.5135835990899045e-7 9.350792530242575e-7 0.0000312520532604478
          0.0007809969562711844 -0.00011031742036160924 -0.00011023003357177169 1.5135835990893698e-7 -0.00003125205326044776 -9.350792530238937e-7
          0.0007772371549870533 -0.0001102300335717717 -0.00011023003357177169 6.397157007145022e-8 0.0000010255407773762003 -0.0000010255407773762732
          0.0007809969562711841 -0.000029536048477211787 -0.00002955946369697789 -4.0556350305311684e-8 0.00000840505797756325 0.00004065155647077545
          0.0007847330111634195 -0.00002955946369697792 -0.000029559463696977892 -6.397157007144102e-8 0.00004070824064341576 0.00004070824064341554
          0.0007772371549870534 -0.00002953604847721179 -0.000029536048477211784 -1.7141130539194204e-8 0.000008373962432951395 0.00000837396243295141
          0.0007809969562711844 -0.0000295594636969779 -0.000029536048477211774 -4.0556350305326084e-8 0.00004065155647077539 0.000008405057977563034
          0.0007809969562711845 -0.00011023003357177171 -0.0001103174203616092 -1.5135835990898004e-7 -9.350792530243621e-7 0.00003125205326044788
          0.0007847330111634195 -0.00011031742036160924 -0.0001103174203616092 -2.387451497464784e-7 0.00003136810341282813 0.00003136810341282798
          0.0007772371549870534 -0.00011023003357177171 -0.00011023003357177171 -6.397157007143763e-8 -0.0000010255407773761205 -0.0000010255407773761603
          0.0007809969562711844 -0.00011031742036160924 -0.00011023003357177171 -1.5135835990894616e-7 0.00003125205326044777 -9.350792530244162e-7
          0.0007809969562711841 -0.000029559463696977902 -0.000029536048477211787 -4.055635030531304e-8 -0.00004065155647077534 -0.000008405057977563063
          0.0007772371549870532 -0.00002953604847721178 -0.00002953604847721179 -1.714113053918025e-8 -0.00000837396243295146 -0.000008373962432951573
          0.0007847330111634195 -0.000029559463696977902 -0.000029559463696977922 -6.39715700714373e-8 -0.000040708240643415816 -0.00004070824064341563
          0.0007809969562711844 -0.000029536048477211757 -0.000029559463696977916 -4.0556350305301116e-8 -0.000008405057977563244 -0.00004065155647077557
          0.0007809969562711845 -0.00011031742036160929 -0.00011023003357177173 -1.51358359909033e-7 -0.000031252053260447706 9.350792530249144e-7
          0.0007772371549870532 -0.00011023003357177173 -0.00011023003357177173 -6.397157007141265e-8 0.0000010255407773763683 0.0000010255407773765931
          0.0007847330111634195 -0.00011031742036160929 -0.00011031742036160934 -2.3874514974658556e-7 -0.00003136810341282815 -0.00003136810341282771
          0.0007809969562711844 -0.00011023003357177173 -0.00011031742036160934 -1.5135835990898216e-7 9.35079253024586e-7 -0.0000312520532604474
          0.0007772371549870531 -0.00002953604847721178 -0.00002953604847721179 1.7141130539183193e-8 0.000008373962432951375 -0.000008373962432951309
          0.0007809969562711844 -0.0000295594636969779 -0.000029536048477211794 4.055635030528204e-8 0.000040651556470775405 -0.000008405057977563409
          0.0007809969562711844 -0.00002953604847721178 -0.000029559463696977916 4.0556350305303214e-8 0.000008405057977563294 -0.00004065155647077532
          0.0007847330111634194 -0.00002955946369697788 -0.000029559463696977906 6.397157007140036e-8 0.00004070824064341583 -0.000040708240643416026
          0.0007772371549870533 -0.00011023003357177173 -0.00011023003357177173 6.397157007139698e-8 -0.0000010255407773761942 0.0000010255407773765322
          0.0007809969562711844 -0.00011031742036160929 -0.00011023003357177173 1.5135835990898682e-7 0.000031252053260447754 9.350792530247467e-7
          0.0007809969562711844 -0.00011023003357177173 -0.00011031742036160931 1.5135835990895294e-7 -9.350792530242656e-7 -0.00003125205326044749
          0.0007847330111634193 -0.00011031742036160929 -0.00011031742036160931 2.387451497465326e-7 0.0000313681034128281 -0.000031368103412827924
          0.0008145661654671779 -0.0001343621959007226 -0.00013436219590072258 -3.146722443096225e-8 0.000021020662422492468 -0.000021020662422492786
          0.0008182701361017042 -0.00013437371370425089 -0.00013436219590072258 -1.994942090260867e-8 0.000014994099128418606 -0.000020919089518912757
          0.000818270136101704 -0.0001343621959007226 -0.00013437371370425089 -1.9949420902639665e-8 0.000020919089518912564 -0.00001499409912841912
          0.0008219979261690386 -0.00013437371370425089 -0.00013437371370425089 -8.431617374292857e-9 0.000015026199802538128 -0.000015026199802538682
          0.0008145661654671778 -0.00011929578766553825 -0.00011929578766553828 -9.444747391925428e-7 0.000011760735836177129 -0.000011760735836177122
          0.0008182701361017044 -0.00011964148941331539 -0.00011929578766553828 -5.987729914153955e-7 0.000005734172542102968 -0.000011599614350578351
          0.0008182701361017042 -0.00011929578766553825 -0.00011964148941331538 -5.987729914153916e-7 0.000011599614350577077 -0.000005734172542102834
          0.0008219979261690386 -0.0001196414894133154 -0.00011964148941331538 -2.5307124363825106e-7 0.000005706724634202747 -0.0000057067246342035184
          0.0008182701361017042 -0.0001343737137042509 -0.00013436219590072258 1.9949420902585316e-8 -0.000014994099128418797 -0.00002091908951891272
          0.0008145661654671776 -0.0001343621959007226 -0.00013436219590072258 3.146722443093155e-8 -0.000021020662422492434 -0.000021020662422492542
          0.000821997926169038 -0.0001343737137042509 -0.00013437371370425089 8.431617374286514e-9 -0.000015026199802538428 -0.000015026199802538538
          0.0008182701361017046 -0.0001343621959007226 -0.00013437371370425089 1.9949420902628514e-8 -0.0000209190895189125 -0.000014994099128419053
          0.0008182701361017043 -0.00011964148941331542 -0.00011929578766553818 5.987729914153054e-7 -0.000005734172542102779 -0.000011599614350577287
          0.0008145661654671776 -0.00011929578766553825 -0.00011929578766553818 9.444747391925068e-7 -0.000011760735836176441 -0.000011760735836176663
          0.000821997926169038 -0.00011964148941331542 -0.00011964148941331536 2.530712436381751e-7 -0.000005706724634202505 -0.000005706724634202615
          0.0008182701361017046 -0.00011929578766553826 -0.00011964148941331536 5.987729914153528e-7 -0.000011599614350577011 -0.000005734172542103606
          0.0008182701361017045 -0.00013436219590072269 -0.00013437371370425094 1.994942090256927e-8 0.000020919089518912405 0.00001499409912841894
          0.0008219979261690386 -0.0001343737137042509 -0.00013437371370425094 8.431617374318884e-9 0.000015026199802538163 0.000015026199802538343
          0.000814566165467178 -0.00013436219590072266 -0.00013436219590072269 3.146722443085028e-8 0.000021020662422492685 0.00002102066242249295
          0.000818270136101705 -0.0001343737137042509 -0.00013436219590072269 1.9949420902591427e-8 0.000014994099128419068 0.000020919089518912706
          0.0008182701361017047 -0.00011929578766553828 -0.00011964148941331538 5.987729914153835e-7 0.00001159961435057697 0.000005734172542102895
          0.0008219979261690387 -0.00011964148941331539 -0.00011964148941331538 2.530712436382266e-7 0.000005706724634202431 0.000005706724634202528
          0.000814566165467178 -0.00011929578766553828 -0.00011929578766553821 9.444747391925071e-7 0.000011760735836176695 0.000011760735836177444
          0.0008182701361017048 -0.0001196414894133154 -0.00011929578766553821 5.987729914153535e-7 0.000005734172542102428 0.000011599614350576676
          0.0008219979261690387 -0.00013437371370425094 -0.00013437371370425094 -8.431617374339877e-9 -0.000015026199802538214 0.000015026199802538114
          0.0008182701361017044 -0.00013436219590072263 -0.00013437371370425094 -1.9949420902614962e-8 -0.000020919089518912425 0.000014994099128418306
          0.0008182701361017044 -0.00013437371370425094 -0.00013436219590072266 -1.994942090261835e-8 -0.00001499409912841882 0.0000209190895189124
          0.0008145661654671783 -0.00013436219590072263 -0.00013436219590072266 -3.1467224430887505e-8 -0.000021020662422492383 0.000021020662422492603
          0.0008219979261690387 -0.00011964148941331539 -0.00011964148941331538 -2.530712436382564e-7 -0.00000570672463420259 0.000005706724634202924
          0.0008182701361017047 -0.00011929578766553826 -0.00011964148941331538 -5.987729914153935e-7 -0.00001159961435057672 0.00000573417254210264
          0.0008182701361017044 -0.00011964148941331539 -0.00011929578766553824 -5.987729914153901e-7 -0.000005734172542102613 0.000011599614350576967
          0.0008145661654671782 -0.00011929578766553828 -0.00011929578766553824 -9.444747391925204e-7 -0.000011760735836176509 0.00001176073583617575
          0.0008148548781397281 -0.00011941495577965275 -0.00011941495577965278 -9.463139547323187e-7 -0.000011839567898792209 0.000011839567898791618
          0.0008187542377287185 -0.0001197613307270405 -0.00011941495577965278 -5.999390073446042e-7 -0.000005682775267757082 0.000011678226329408574
          0.0008187542377287184 -0.00011941495577965275 -0.00011976133072704045 -5.999390073445651e-7 -0.000011678226329409208 0.000005682775267756449
          0.0008226753867245391 -0.00011976133072704047 -0.00011976133072704045 -2.535640599568379e-7 -0.000005654371589857776 0.0000056543715898569735
          0.000814854878139728 -0.0001348069373572399 -0.0001348069373572399 -3.8331270271528635e-8 -0.000021587966871267726 0.000021587966871267513
          0.0008187542377287188 -0.00013482096757591865 -0.0001348069373572399 -2.430105159282672e-8 -0.000015431174240233138 0.000021481098818962
          0.0008187542377287184 -0.0001348069373572399 -0.00013482096757591862 -2.4301051592783564e-8 -0.000021481098818961545 0.000015431174240232724
          0.0008226753867245391 -0.00013482096757591865 -0.00013482096757591862 -1.0270832914071483e-8 -0.00001545724407941033 0.000015457244079410398
          0.0008187542377287186 -0.0001197613307270405 -0.00011941495577965267 5.999390073445371e-7 0.0000056827752677577 0.00001167822632940921
          0.0008148548781397285 -0.00011941495577965278 -0.00011941495577965268 9.463139547322957e-7 0.00001183956789879194 0.000011839567898791218
          0.000822675386724539 -0.00011976133072704049 -0.00011976133072704043 2.5356405995678783e-7 0.000005654371589857909 0.0000056543715898578925
          0.0008187542377287185 -0.00011941495577965273 -0.00011976133072704043 5.999390073445253e-7 0.000011678226329409064 0.000005682775267756735
          0.0008187542377287188 -0.00013482096757591862 -0.00013480693735723993 2.4301051592910808e-8 0.000015431174240233053 0.000021481098818961115
          0.0008148548781397279 -0.0001348069373572399 -0.00013480693735723993 3.8331270271605615e-8 0.000021587966871267892 0.000021587966871268414
          0.0008226753867245394 -0.00013482096757591862 -0.00013482096757591862 1.0270832914165178e-8 0.000015457244079410462 0.00001545724407941034
          0.0008187542377287184 -0.0001348069373572399 -0.00013482096757591862 2.4301051592846433e-8 0.000021481098818961403 0.000015431174240232846
          0.0008187542377287184 -0.00011941495577965273 -0.00011976133072704043 5.999390073445995e-7 -0.000011678226329409686 -0.000005682775267757316
          0.000822675386724539 -0.00011976133072704046 -0.00011976133072704046 2.5356405995683897e-7 -0.000005654371589858064 -0.000005654371589858546
          0.0008148548781397277 -0.00011941495577965272 -0.00011941495577965265 9.463139547323708e-7 -0.000011839567898792907 -0.000011839567898791596
          0.0008187542377287181 -0.00011976133072704045 -0.00011941495577965265 5.999390073445806e-7 -0.000005682775267757431 -0.00001167822632940901
          0.0008187542377287183 -0.00013480693735723985 -0.00013482096757591865 2.4301051592844196e-8 -0.000021481098818961972 -0.000015431174240232616
          0.000822675386724539 -0.0001348209675759186 -0.00013482096757591865 1.027083291414213e-8 -0.000015457244079410293 -0.000015457244079410882
          0.0008148548781397277 -0.00013480693735723985 -0.00013480693735723993 3.833127027157966e-8 -0.000021587966871267933 -0.000021587966871267872
          0.0008187542377287183 -0.0001348209675759186 -0.00013480693735723993 2.430105159288776e-8 -0.00001543117424023311 -0.000021481098818961782
          0.000822675386724539 -0.00011976133072704047 -0.00011976133072704046 -2.535640599568539e-7 0.0000056543715898581144 -0.000005654371589856963
          0.0008187542377287188 -0.00011941495577965273 -0.00011976133072704049 -5.999390073446134e-7 0.000011678226329409401 -0.000005682775267757822
          0.0008187542377287183 -0.00011976133072704045 -0.00011941495577965267 -5.999390073446074e-7 0.000005682775267757217 -0.00001167822632940935
          0.0008148548781397278 -0.0001194149557796527 -0.00011941495577965267 -9.463139547323736e-7 0.000011839567898792417 -0.000011839567898792451
          0.0008226753867245391 -0.00013482096757591862 -0.00013482096757591862 -1.0270832914127908e-8 0.00001545724407941029 -0.000015457244079410713
          0.0008187542377287185 -0.0001348069373572399 -0.00013482096757591862 -2.430105159283288e-8 0.000021481098818961524 -0.000015431174240231765
          0.0008187542377287184 -0.00013482096757591862 -0.0001348069373572399 -2.4301051592856598e-8 0.000015431174240232247 -0.00002148109881896147
          0.0008148548781397279 -0.0001348069373572399 -0.0001348069373572399 -3.83312702715243e-8 0.000021587966871267005 -0.000021587966871266822
          0.0007858459452296742 -0.00011076216181812656 -0.00011076216181812659 2.3188110390587454e-7 0.0000310978738623513 -0.000031097873862351354
          0.000781978669898392 -0.00011067728744343945 -0.00011076216181812657 1.4700672921876152e-7 -0.0000013355381404619743 -0.00003098926246496419
          0.000781978669898392 -0.00011076216181812655 -0.00011067728744343944 1.470067292187911e-7 0.00003098926246496419 0.0000013355381404625707
          0.0007780895321193686 -0.00011067728744343946 -0.00011067728744343945 6.213235453166791e-8 -0.0000014192965960371264 0.0000014192965960364758
          0.000785845945229674 -0.000029678631811092342 -0.000029678631811092345 6.213235453162242e-8 0.000040766062190555896 -0.00004076606219055568
          0.0007819786698983924 -0.000029655889790936837 -0.000029678631811092345 3.9390334376106046e-8 0.000008332650187741972 -0.00004071210691252488
          0.0007819786698983923 -0.000029678631811092342 -0.000029655889790936837 3.9390334376113834e-8 0.00004071210691252488 -0.000008332650187741755
          0.0007780895321193686 -0.000029655889790936844 -0.000029655889790936844 1.6648314220604234e-8 0.000008303547851523131 -0.000008303547851523131
          0.0007819786698983922 -0.00011067728744343948 -0.00011076216181812663 -1.470067292186537e-7 0.000001335538140462408 -0.00003098926246496446
          0.0007858459452296735 -0.00011076216181812653 -0.00011076216181812661 -2.3188110390581112e-7 -0.000031097873862351516 -0.00003109787386235173
          0.0007780895321193681 -0.00011067728744343946 -0.00011067728744343942 -6.213235453155728e-8 0.0000014192965960369095 0.0000014192965960377227
          0.0007819786698983928 -0.00011076216181812655 -0.00011067728744343945 -1.4700672921872824e-7 -0.00003098926246496397 0.0000013355381404619743
          0.0007819786698983925 -0.000029655889790936837 -0.000029678631811092356 -3.939033437607911e-8 -0.000008332650187741972 -0.00004071210691252466
          0.000785845945229674 -0.00002967863181109234 -0.000029678631811092356 -6.213235453160132e-8 -0.000040766062190555896 -0.000040766062190555896
          0.0007780895321193682 -0.000029655889790936837 -0.000029655889790936833 -1.6648314220576385e-8 -0.000008303547851523131 -0.000008303547851523782
          0.0007819786698983928 -0.00002967863181109235 -0.00002965588979093684 -3.939033437609944e-8 -0.00004071210691252401 -0.000008332650187741972
          0.0007819786698983922 -0.00011076216181812656 -0.00011067728744343948 -1.470067292187203e-7 0.00003098926246496484 -0.0000013355381404624622
          0.0007780895321193681 -0.00011067728744343942 -0.00011067728744343946 -6.213235453159388e-8 -0.0000014192965960371264 -0.0000014192965960369095
          0.0007858459452296735 -0.00011076216181812653 -0.0001107621618181266 -2.3188110390583706e-7 0.00003109787386235217 0.00003109787386235233
          0.0007819786698983928 -0.00011067728744343944 -0.00011076216181812661 -1.4700672921868692e-7 -0.0000013355381404617575 0.00003098926246496354
          0.0007819786698983925 -0.000029678631811092332 -0.00002965588979093684 -3.9390334376103974e-8 0.00004071210691252488 0.000008332650187742189
          0.0007780895321193679 -0.00002965588979093683 -0.00002965588979093684 -1.6648314220585398e-8 0.000008303547851523131 0.000008303547851523131
          0.0007858459452296737 -0.000029678631811092332 -0.000029678631811092356 -6.213235453160077e-8 0.000040766062190555896 0.00004076606219055611
          0.0007819786698983928 -0.000029655889790936837 -0.000029678631811092362 -3.9390334376088126e-8 0.000008332650187741972 0.00004071210691252401
          0.0007780895321193679 -0.00011067728744343946 -0.00011067728744343946 6.213235453161149e-8 0.0000014192965960360421 -0.0000014192965960354458
          0.0007819786698983924 -0.00011076216181812653 -0.00011067728744343944 1.470067292187689e-7 -0.00003098926246496419 -0.0000013355381404613238
          0.0007819786698983924 -0.00011067728744343945 -0.00011076216181812656 1.4700672921872147e-7 0.0000013355381404608901 0.00003098926246496435
          0.0007858459452296743 -0.00011076216181812656 -0.00011076216181812659 2.3188110390587888e-7 -0.0000310978738623526 0.00003109787386235282
          0.0007780895321193679 -0.000029655889790936833 -0.000029655889790936833 1.6648314220589937e-8 -0.000008303547851523131 0.000008303547851523348
          0.0007819786698983926 -0.000029678631811092342 -0.000029655889790936833 3.939033437610622e-8 -0.00004071210691252488 0.000008332650187741972
          0.0007819786698983925 -0.000029655889790936833 -0.00002967863181109235 3.9390334376101136e-8 -0.000008332650187741972 0.0000407121069125251
          0.0007858459452296739 -0.000029678631811092352 -0.000029678631811092352 6.213235453161488e-8 -0.000040766062190555896 0.000040766062190555896
          <InformationKey name="L2_NORM_RANGE" location="vtkDataArray" length="2">
            <Value index="0">
              0.00077844884109