<?xml version="1.0"?>
<VTKFile type="UnstructuredGrid" version="0.1" byte_order="LittleEndian" header_type="UInt32" compressor="vtkZLibDataCompressor">
  <UnstructuredGrid>
    <Piece NumberOfPoints="45" NumberOfCells="16">
      <PointData Scalars="nodal_stress_von_mises" Vectors="displacement">
        <DataArray type="Float64" Name="displacement" NumberOfComponents="3" format="ascii" RangeMin="0" RangeMax="0.0008">
          0 0 0 0 0 0
          0 0 0 0 0 0
          0 0 0 0 0 0
          0 0 0 0 0 0
          0 0 0 0.00019681237068498112 0.000014044240695370114 -0.000014044240695370083
          0.0001951970480178091 0.000013967732280938646 -1.2642787949340771e-20 0.00019681237068498107 0.00001404424069537012 0.000014044240695370048
          0.0001951970480178091 4.331779078755202e-20 -0.000013967732280938615 0.00019355470617956805 4.2980522562025337e-20 -1.1948774328561846e-20
          0.0001951970480178091 4.86293866574369e-20 0.00001396773228093859 0.0001968123706849811 -0.000014044240695370034 -0.000014044240695370085
          0.0001951970480178091 -0.00001396773228093857 -7.317501744000871e-21 0.00019681237068498107 -0.000014044240695370022 0.000014044240695370068
          0.00039982523678771907 0.000011361304748014487 -0.000011361304748014496 0.00039981093628314645 0.00001150350533604549 -5.10782224733669e-20
          0.000399825236787719 0.000011361304748014528 0.000011361304748014396 0.00039981093628314656 4.0052238438179095e-20 -0.000011503505336045466
          0.00039979712422068004 6.392186384840807e-20 -2.997932841588898e-20 0.0003998109362831465 7.864996917386657e-20 0.000011503505336045398
          0.0003998252367877192 -0.000011361304748014403 -0.000011361304748014457 0.0003998109362831466 -0.000011503505336045364 -1.7486373190422108e-20
          0.0003998252367877192 -0.000011361304748014374 0.000011361304748014423 0.0006028806583939383 0.000014103844354831355 -0.000014103844354831374
          0.0006045530774727312 0.000014025471385387501 -3.239696676826092e-20 0.0006028806583939383 0.000014103844354831388 0.000014103844354831305
          0.0006045530774727312 2.7427805864317776e-20 -0.000014025471385387474 0.0006062505796217639 4.1800825192414805e-20 -1.5342320114333807e-20
          0.0006045530774727311 5.192709208105269e-20 0.000014025471385387445 0.0006028806583939383 -0.000014103844354831294 -0.00001410384435483133
          0.0006045530774727311 -0.00001402547138538741 1.5181342717480159e-21 0.0006028806583939384 -0.000014103844354831264 0.000014103844354831332
          0.0008 0 0 0.0008 0 0
          0.0008 0 0 0.0008 0 0
          0.0008 0 0 0.0008 0 0
          0.0008 0 0 0.0008 0 0
          0.0008 0 0
          <InformationKey name="L2_NORM_RANGE" location="vtkDataArray" length="2">
            <Value index="0">
              0
            </Value>
            <Value index="1">
              0.0008
            </Value>
          </InformationKey>
        </DataArray>
        <DataArray type="Float64" Name="nodal_strain_voigt" NumberOfComponents="6" format="ascii" RangeMin="0.0007870174025927018" RangeMax="0.0008383093028745214">
          0.0007807611729001673 -0.00007002993244077168 -0.00007002993244077168 3.82542072157348e-7 -0.000019867811712776046 0.00001986781171277601
          0.0007807611729001673 -0.00007002993244077169 -0.00007002993244077167 -7.444625512977246e-22 -2.6469779601696874e-21 0.000019867811712776073
          0.0007807611729001673 -0.00007002993244077169 -0.00007002993244077167 -3.825420721573495e-7 0.000019867811712776043 0.000019867811712776138
          0.0007807611729001671 -0.00007002993244077169 -0.00007002993244077169 1.5013328117837446e-20 -0.000019867811712776046 -3.176373552203625e-20
          0.0007807611729001671 -0.00007002993244077169 -0.00007002993244077168 7.237830359838989e-22 5.955700410381797e-21 0
          0.0007807611729001671 -0.00007002993244077169 -0.00007002993244077168 -1.3565762045869648e-20 0.00001986781171277606 3.0440246541951406e-20
          0.0007807611729001671 -0.0000700299324407717 -0.00007002993244077169 -3.82542072157318e-7 -0.00001986781171277605 -0.00001986781171277607
          0.0007807611729001671 -0.00007002993244077169 -0.00007002993244077169 2.1920286232655226e-21 1.455837878093328e-20 -0.000019867811712776073
          0.0007807611729001671 -0.00007002993244077169 -0.00007002993244077169 3.825420721573223e-7 0.00001986781171277608 -0.000019867811712776077
          0.0007996221167873458 -0.0000986109450458465 -0.0000986109450458465 2.7040602079873886e-8 -0.0000032531030696983865 0.000003253103069698417
          0.0007996221167873458 -0.0000986109450458465 -0.00009861094504584649 -5.697206468958975e-21 7.080666043453913e-20 0.0000032531030696984924
          0.0007996221167873458 -0.00009861094504584653 -0.00009861094504584649 -2.7040602079885278e-8 0.0000032531030696985284 0.0000032531030696985665
          0.0007996221167873458 -0.00009861094504584653 -0.00009861094504584653 2.0886310466963938e-21 -0.0000032531030696984225 -4.102815838263015e-20
          0.0007996221167873458 -0.00009861094504584653 -0.0000986109450458465 -4.1410729415935925e-21 6.253485430900886e-20 2.183756817139992e-20
          0.0007996221167873458 -0.00009861094504584653 -0.0000986109450458465 -1.0370776929883578e-20 0.0000032531030696985488 8.404155023538756e-20
          0.0007996221167873459 -0.00009861094504584656 -0.00009861094504584653 -2.7040602079869707e-8 -0.0000032531030696984594 -0.000003253103069698499
          0.0007996221167873458 -0.00009861094504584653 -0.00009861094504584653 -2.58493941422821e-21 5.426304818347859e-20 -0.000003253103069698449
          0.0007996221167873458 -0.00009861094504584653 -0.00009861094504584653 2.704060207986454e-8 0.000003253103069698568 -0.0000032531030696983984
          0.0008187381100304983 -0.00012733863610580898 -0.000127338636105809 -3.2379948046657507e-7 -1.2871086737286537e-7 1.2871086737302949e-7
          0.0008187381100304984 -0.00012733863610580904 -0.00012733863610580904 -1.96455395481344e-22 2.534481396862476e-19 1.2871086737299643e-7
          0.0008187381100304983 -0.000127338636105809 -0.000127338636105809 3.237994804665747e-7 1.2871086737337227e-7 1.287108673729633e-7
          0.0008187381100304984 -0.00012733863610580904 -0.00012733863610580906 -3.205324873642981e-21 -1.2871086737285746e-7 -1.6080391108030853e-19
          0.0008187381100304983 -0.00012733863610580898 -0.000127338636105809 -2.0576117737256552e-21 1.849575849668569e-19 -8.867376166568452e-20
          0.0008187381100304984 -0.00012733863610580904 -0.000127338636105809 -9.0989867380833e-22 1.2871086737322737e-7 -1.6543612251060547e-20
          0.0008187381100304983 -0.000127338636105809 -0.00012733863610580904 3.237994804665687e-7 -1.287108673728495e-7 -1.287108673733511e-7
          0.0008187381100304984 -0.00012733863610580904 -0.00012733863610580904 -3.918768151969967e-21 1.1646703024746625e-19 -1.2871086737317377e-7
          0.0008187381100304983 -0.000127338636105809 -0.000127338636105809 -3.2379948046657655e-7 1.2871086737308243e-7 -1.287108673729964e-7
          0.0008003778832126538 -0.00009890430195562179 -0.00009890430195562183 3.6363377141921856e-8 0.0000030427426812649623 -0.000003042742681264732
          0.0008003778832126538 -0.00009890430195562182 -0.00009890430195562183 1.656429176637437e-20 3.374896899216351e-19 -0.0000030427426812649234
          0.0008003778832126538 -0.00009890430195562183 -0.00009890430195562183 -3.636337714188873e-8 -0.0000030427426812642872 -0.0000030427426812651144
          0.0008003778832126538 -0.00009890430195562179 -0.00009890430195562183 1.474449441875771e-20 0.000003042742681265061 -1.6212740006039333e-19
          0.0008003778832126538 -0.00009890430195562179 -0.00009890430195562182 1.1342714149633386e-20 2.1407434252872344e-19 -1.4128244862405705e-19
          0.0008003778832126538 -0.00009890430195562179 -0.00009890430195562182 7.940933880509061e-21 -0.0000030427426812646332 -1.1977575269767834e-19
          0.0008003778832126534 -0.00009890430195562178 -0.00009890430195562182 -3.636337714189237e-8 0.0000030427426812651592 0.0000030427426812644075
          0.0008003778832126536 -0.00009890430195562178 -0.00009890430195562182 6.121136532892402e-21 9.065899513581179e-20 0.0000030427426812646413
          0.0008003778832126538 -0.00009890430195562178 -0.00009890430195562182 3.636337714190459e-8 -0.000003042742681264978 0.0000030427426812648746
          0.0007817626070388353 -0.00007032328935054697 -0.000070323289350547 3.918648472193938e-7 0.000019704512670654925 -0.000019704512670654694
          0.0007817626070388353 -0.00007032328935054698 -0.000070323289350547 2.2871543937091203e-20 3.1234339930002306e-19 -0.000019704512670654925
          0.0007817626070388353 -0.00007032328935054699 -0.00007032328935054699 -3.91864847219348e-7 -0.0000197045126706543 -0.000019704512670655155
          0.0007817626070388353 -0.00007032328935054697 -0.00007032328935054699 2.5063572560356724e-20 0.000019704512670655033 -5.293955920339374e-20
          0.0007817626070388353 -0.00007032328935054697 -0.000070323289350547 1.7784383169890086e-20 1.7734752333136904e-19 -6.021874859386038e-20
          0.0007817626070388355 -0.00007032328935054697 -0.00007032328935054698 1.0505193779423445e-20 -0.00001970451267065468 -6.882142696441187e-20
          0.0007817626070388353 -0.00007032328935054695 -0.00007032328935054698 -3.9186484721934365e-7 0.000019704512670655145 0.000019704512670654586
          0.0007817626070388355 -0.00007032328935054694 -0.00007032328935054698 1.2697222402688967e-20 4.235164736271499e-20 0.000019704512670654803
          0.0007817626070388355 -0.00007032328935054694 -0.00007032328935054698 3.91864847219369e-7 -0.00001970451267065506 0.00001970451267065502
          <InformationKey name="L2_NORM_RANGE" location="vtkDataArray" length="2">
            <Value index="0">
              0.00078701740259
            </Value>
            <Value index="1">
              0.00083830930287
            </Value>
          </InformationKey>
        </DataArray>
        <DataArray type="Float64" Name="nodal_stress_voigt" NumberOfComponents="6" format="ascii" RangeMin="2.8517878142741617" RangeMax="5.289934658764964">
          -0.001536452006694964 -2.0165182093100262 -2.016518209310026 0.0027449205385516495 -0.06118609299313701 0.06118609299313669
          -0.0015364520066949716 -2.0165182093100262 -2.0165182093100253 -7.707999820014131e-17 -2.385244779468109e-16 0.06118609299313716
          -0.0015364520066949794 -2.0165182093100262 -2.0165182093100253 -0.0027449205385518035 0.06118609299313653 0.06118609299313763
          -0.0015364520066949755 -2.016518209310027 -2.016518209310026 1.151964808265848e-16 -0.06118609299313718 -1.4094628242311553e-16
          -0.0015364520066949786 -2.0165182093100276 -2.0165182093100253 -2.549569171235443e-17 -2.1412992906588705e-16 2.493664996716659e-16
          -0.001536452006694982 -2.016518209310028 -2.0165182093100245 -1.6618786425129368e-16 0.06118609299313676 6.451002926288749e-16
          -0.0015364520066949872 -2.0165182093100276 -2.0165182093100267 -0.002744920538551419 -0.06118609299313736 -0.06118609299313697
          -0.0015364520066949857 -2.016518209310029 -2.0165182093100253 2.608861477543244e-17 -1.897353801849632e-16 -0.06118609299313666
          -0.0015364520066949848 -2.0165182093100293 -2.0165182093100236 0.0027449205385514713 0.06118609299313699 -0.06118609299313634
          -0.0006464857543441743 -2.8764269280593098 -2.876426928059309 -0.00009747934898065933 -0.008202100702722275 0.008202100702722228
          -0.000646485754344175 -2.8764269280593098 -2.8764269280593084 -2.550416204182697e-16 -8.131516293641278e-17 0.008202100702723007
          -0.0006464857543441759 -2.8764269280593098 -2.876426928059308 0.00009747934898014926 0.008202100702722112 0.00820210070272379
          -0.00064648575434418 -2.8764269280593098 -2.876426928059309 -2.2522606067491836e-16 -0.00820210070272231 -9.486769009248159e-18
          -0.0006464857543441802 -2.8764269280593098 -2.8764269280593084 -6.268043809681819e-17 -7.250602028496807e-17 4.845028458294595e-16
          -0.0006464857543441805 -2.8764269280593107 -2.8764269280593076 9.986518448128196e-17 0.008202100702722167 9.81202966099381e-16
          -0.0006464857543441857 -2.8764269280593107 -2.8764269280593093 0.00009747934898020889 -0.008202100702722348 -0.008202100702722247
          -0.0006464857543441853 -2.8764269280593107 -2.8764269280593084 1.296807442246333e-16 -6.369687763352335e-17 -0.008202100702722039
          -0.0006464857543441851 -2.8764269280593115 -2.8764269280593076 -0.00009747934897994952 0.008202100702722221 -0.008202100702721827
          0.00022776369967527688 -3.740548026599333 -3.7405480265993294 -0.0029356787532300167 -0.0006875043465459572 0.0006875043465464017
          0.00022776369967527515 -3.740548026599333 -3.7405480265993303 -1.9236965265092407e-15 7.11507675693612e-16 0.000687504346546311
          0.00022776369967527323 -3.7405480265993325 -3.7405480265993294 0.0029356787532261695 0.0006875043465473802 0.0006875043465462201
          0.00022776369967527426 -3.740548026599334 -3.7405480265993294 6.530624023330653e-17 -0.0006875043465452864 -7.372574772901427e-16
          0.00022776369967527455 -3.7405480265993325 -3.7405480265993303 4.4020302268805964e-16 5.969888212248306e-16 -4.51299154297091e-16
          0.00022776369967527488 -3.7405480265993316 -3.7405480265993307 8.150998051428129e-16 0.000687504346546479 -1.6534083130403938e-16
          0.00022776369967527155 -3.7405480265993325 -3.740548026599328 0.0029356787532301477 -0.0006875043465446128 -0.0006875043465478762
          0.00022776369967527404 -3.740548026599332 -3.7405480265993303 2.80410257188536e-15 4.824699667560493e-16 -0.000687504346547215
          0.00022776369967527645 -3.7405480265993294 -3.7405480265993307 -0.0029356787532245398 0.0006875043465455777 -0.0006875043465465508
          -0.0006543658576416337 -2.884737420887242 -2.884737420887245 -0.00005093897371179881 0.0070422516117032395 -0.007042251611702456
          -0.0006543658576416333 -2.8847374208872463 -2.8847374208872405 -1.5919137210697313e-15 1.374226253625376e-15 -0.007042251611703947
          -0.000654365857641633 -2.8847374208872503 -2.8847374208872365 0.000050938973708614984 -0.007042251611700489 -0.007042251611705441
          -0.00065436585764162 -2.8847374208872427 -2.8847374208872423 6.671231492574866e-16 0.0070422516117038285 -1.2793585635328944e-15
          -0.0006543658576416228 -2.8847374208872445 -2.8847374208872405 6.246867986000462e-16 7.765598060427422e-16 -1.3823577699190174e-15
          -0.0006543658576416255 -2.8847374208872454 -2.8847374208872396 5.822504479426058e-16 -0.007042251611702272 -1.488067481736354e-15
          -0.0006543658576416062 -2.884737420887243 -2.8847374208872396 0.00005093897371313306 0.007042251611704414 0.0070422516116999
          -0.0006543658576416122 -2.8847374208872423 -2.884737420887241 2.8412873182698235e-15 1.7618285302889437e-16 0.007042251611701183
          -0.000654365857641618 -2.884737420887241 -2.8847374208872427 -0.000050938973707450484 -0.007042251611704058 0.007042251611702465
          -0.001520778616627206 -2.0247144353844106 -2.024714435384424 0.0028296003225234687 0.06024140350419084 -0.06024140350418994
          -0.001520778616627196 -2.02471443538442 -2.0247144353844146 2.305623682426204e-16 1.4040418133687275e-15 -0.06024140350419165
          -0.0015207786166271853 -2.0247144353844297 -2.024714435384405 -0.0028296003225230077 -0.06024140350418803 -0.06024140350419337
          -0.0015207786166271731 -2.0247144353844133 -2.0247144353844195 6.379852158719386e-16 0.06024140350419078 -9.595189226496708e-16
          -0.0015207786166271766 -2.024714435384418 -2.0247144353844146 2.6910236734269107e-16 4.28259858131774e-16 -1.1438332919722066e-15
          -0.0015207786166271798 -2.024714435384423 -2.0247144353844098 -9.978048118655653e-17 -0.06024140350418992 -1.3281476612947421e-15
          -0.0015207786166271402 -2.0247144353844155 -2.0247144353844146 -0.002829600322522193 0.06024140350419071 0.060241403504188024
          -0.0015207786166271573 -2.024714435384416 -2.0247144353844146 3.0764236644276174e-16 -5.475220971051794e-16 0.06024140350418936
          -0.0015207786166271746 -2.024714435384416 -2.024714435384415 0.002829600322522808 -0.060241403504191805 0.06024140350419071
          <InformationKey name="L2_NORM_RANGE" location="vtkDataArray" length="2">
            <Value index="0">
              2.8517878143
            </Value>
            <Value index="1">
              5.2899346588
            </Value>
          </InformationKey>
        </DataArray>
        <DataArray type="Float64" Name="nodal_plastic_strain_voigt" NumberOfComponents="6" format="ascii" RangeMin="3.805030241467233e-7" RangeMax="8.112202320862686e-7">
          3.106739380120201e-7 -1.5534518921566498e-7 -1.553451892156775e-7 2.6590996712187207e-7 -9.833302374423982e-9 9.833302374424012e-9
          3.1067393801202015e-7 -1.5534518921566993e-7 -1.5534518921567258e-7 -5.583469134732935e-22 -9.047287949798737e-24 9.833302374424078e-9
          3.106739380120202e-7 -1.5534518921567488e-7 -1.5534518921566765e-7 -2.659099671218732e-7 9.833302374423964e-9 9.833302374424143e-9
          3.1067393801202015e-7 -1.553451892156728e-7 -1.5534518921566972e-7 -4.342698215903393e-22 -9.83330237442395e-9 4.0712795774094313e-23
          3.1067393801202015e-7 -1.553451892156425e-7 -1.553451892157e-7 -4.652890945610779e-22 -1.389404935147663e-23 4.459020489543663e-23
          3.1067393801202015e-7 -1.5534518921561225e-7 -1.553451892157303e-7 -4.963083675318164e-22 9.833302374423921e-9 4.7821379163221895e-23
          3.106739380120202e-7 -1.5534518921568062e-7 -1.553451892156619e-7 -2.659099671218729e-7 -9.833302374423914e-9 -9.833302374423931e-9
          3.1067393801202015e-7 -1.5534518921561509e-7 -1.5534518921572745e-7 -3.722312756488623e-22 -1.8740810753154527e-23 -9.833302374423989e-9
          3.1067393801202015e-7 -1.5534518921554957e-7 -1.55345189215793e-7 2.659099671218722e-7 9.833302374423876e-9 -9.833302374424047e-9
          4.859167393578262e-7 -2.42978591839697e-7 -2.4297859183969716e-7 1.3206062227059107e-7 1.845380436764576e-9 -1.8453804367647746e-9
          4.859167393578262e-7 -2.4297859183969785e-7 -2.4297859183969636e-7 1.4535114326205224e-20 1.5057272087879325e-22 -1.8453804367645548e-9
          4.859167393578262e-7 -2.4297859183969864e-7 -2.4297859183969557e-7 -1.3206062227056203e-7 -1.845380436764275e-9 -1.8453804367643358e-9
          4.859167393578262e-7 -2.429785918397032e-7 -2.42978591839691e-7 2.0806177345122862e-20 1.8453804367643647e-9 -1.5962000882859197e-22
          4.859167393578262e-7 -2.4297859183968795e-7 -2.4297859183970637e-7 -1.7319094075329008e-22 1.722215884729545e-22 -1.0469004627624251e-22
          4.859167393578263e-7 -2.4297859183967265e-7 -2.4297859183972167e-7 -2.1152559226629443e-20 -1.845380436764021e-9 -4.976008372389304e-23
          4.859167393578263e-7 -2.429785918397094e-7 -2.4297859183968493e-7 -1.3206062227054946e-7 1.8453804367641542e-9 1.8453804367644547e-9
          4.859167393578263e-7 -2.42978591839678e-7 -2.429785918397164e-7 -1.4881496207711804e-20 1.9387045606711577e-22 1.8453804367643455e-9
          4.859167393578265e-7 -2.429785918396466e-7 -2.4297859183974777e-7 1.320606222705197e-7 -1.845380436763767e-9 1.8453804367642361e-9
          6.62332050614959e-7 -3.311984601985452e-7 -3.311984601986771e-7 3.1023256274413816e-9 -1.6609353023476583e-10 1.660935302332071e-10
          6.623320506149599e-7 -3.311984601985726e-7 -3.311984601986505e-7 1.7830362779720672e-19 -1.7881318397923645e-21 1.6609353023206782e-10
          6.623320506149604e-7 -3.311984601985999e-7 -3.3119846019862375e-7 -3.102325627084774e-9 1.6609353023118956e-10 1.6609353023092978e-10
          6.623320506149589e-7 -3.311984601985488e-7 -3.311984601986734e-7 -9.523239919443507e-21 -1.6609353023505084e-10 -7.793592333898055e-22
          6.623320506149598e-7 -3.311984601985923e-7 -3.3119846019863073e-7 -4.3725704220090677e-20 -2.0799068761733735e-21 -1.5445013000013554e-22
          6.623320506149607e-7 -3.311984601986359e-7 -3.311984601985881e-7 -7.792816852073787e-20 1.6609353023088974e-10 4.717514430966484e-22
          6.623320506149586e-7 -3.311984601985524e-7 -3.311984601986695e-7 -3.102325627460428e-9 -1.6609353023533451e-10 -1.6609353023476583e-10
          6.623320506149599e-7 -3.311984601986121e-7 -3.31198460198611e-7 -2.657550362373881e-19 -2.3716819125543833e-21 -1.6609353023237608e-10
          6.623320506149608e-7 -3.311984601986717e-7 -3.311984601985524e-7 3.102325626928918e-9 1.6609353023059115e-10 -1.6609353022998627e-10
          4.880434721722738e-7 -2.4404225011131926e-7 -2.440422501111216e-7 1.3763250507332878e-7 -2.0482968162475133e-9 2.0482968162465786e-9
          4.880434721722744e-7 -2.440422501111238e-7 -2.4404225011131767e-7 1.6407127449989294e-19 -1.6653472176165243e-21 2.04829681624504e-9
          4.88043472172275e-7 -2.440422501109283e-7 -2.440422501115138e-7 -1.3763250507300064e-7 2.0482968162441827e-9 2.0482968162434994e-9
          4.880434721722734e-7 -2.440422501112343e-7 -2.440422501112062e-7 -3.0388547753666836e-20 -2.048296816247637e-9 -5.1084865173685e-22
          4.880434721722742e-7 -2.440422501111648e-7 -2.440422501112766e-7 -4.3432152037862385e-20 -2.1201349958073e-21 -2.6010952855671363e-23
          4.88043472172275e-7 -2.4404225011109516e-7 -2.44042250111347e-7 -5.647575632205793e-20 2.048296816243396e-9 4.578573937451717e-22
          4.88043472172273e-7 -2.440422501111493e-7 -2.440422501112908e-7 -1.3763250507338958e-7 -2.048296816247759e-9 -2.0482968162476006e-9
          4.880434721722742e-7 -2.440422501112057e-7 -2.440422501112355e-7 -2.509355785756177e-19 -2.5749227739980757e-21 -2.048296816245092e-9
          4.880434721722752e-7 -2.44042250111262e-7 -2.4404225011118024e-7 1.376325050728877e-7 2.048296816242609e-9 -2.0482968162425837e-9
          3.125823838182617e-7 -1.562995742892772e-7 -1.5629957428860576e-7 2.6727163631108496e-7 9.759656675927639e-9 -9.759656675926817e-9
          3.125823838182617e-7 -1.5629957428882818e-7 -1.5629957428905468e-7 1.1580528575742382e-21 5.557619740590652e-22 -9.759656675927245e-9
          3.125823838182617e-7 -1.5629957428837923e-7 -1.562995742895036e-7 -2.6727163631108263e-7 -9.759656675926527e-9 -9.759656675927674e-9
          3.1258238381826165e-7 -1.5629957428910469e-7 -1.5629957428877816e-7 3.101927297073852e-22 9.759656675927505e-9 1.7642211502107534e-22
          3.1258238381826165e-7 -1.5629957428887824e-7 -1.5629957428900458e-7 7.0310352067007315e-22 2.7755786960275407e-22 9.693522803355788e-25
          3.125823838182616e-7 -1.5629957428865176e-7 -1.5629957428923097e-7 1.0960143116327611e-21 -9.759656675926949e-9 -1.7512964531396123e-22
          3.1258238381826154e-7 -1.5629957428893218e-7 -1.5629957428895053e-7 -2.6727163631108433e-7 9.759656675927372e-9 9.759656675927169e-9
          3.125823838182615e-7 -1.5629957428892824e-7 -1.5629957428895442e-7 2.4815418376590816e-22 -6.462348535570525e-25 9.759656675927247e-9
          3.125823838182615e-7 -1.5629957428892432e-7 -1.5629957428895833e-7 2.6727163631108486e-7 -9.759656675927374e-9 9.759656675927323e-9
          <InformationKey name="L2_NORM_RANGE" location="vtkDataArray" length="2">
            <Value index="0">
              3.8050302415e-07
            </Value>
            <Value index="1">
              8.1122023209e-07
            </Value>
          </InformationKey>
        </DataArray>
        <DataArray type="Float64" Name="nodal_equivalent_plastic_strain" format="ascii" RangeMin="0.000001029153656937338" RangeMax="0.000002143125141283191">
          0.000001029153656937338 0.0000010291536569373381 0.0000010291536569373381 0.0000010291536569373381 0.0000010291536569373381 0.0000010291536569373381
          0.0000010291536569373384 0.0000010291536569373384 0.0000010291536569373384 0.0000015843440288799068 0.0000015843440288799068 0.0000015843440288799064
          0.000001584344028879907 0.000001584344028879907 0.000001584344028879907 0.0000015843440288799074 0.0000015843440288799076 0.0000015843440288799076
          0.0000021431251412831897 0.0000021431251412831897 0.00000214312514128319 0.0000021431251412831893 0.0000021431251412831897 0.0000021431251412831905
          0.000002143125141283189 0.0000021431251412831897 0.000002143125141283191 0.0000015909034408160564 0.0000015909034408160566 0.000001590903440816057
          0.0000015909034408160555 0.0000015909034408160564 0.000001590903440816057 0.0000015909034408160547 0.0000015909034408160555 0.0000015909034408160566
          0.0000010350909998882092 0.0000010350909998882095 0.0000010350909998882095 0.0000010350909998882088 0.000001035090999888209 0.0000010350909998882088
          0.0000010350909998882086 0.0000010350909998882086 0.0000010350909998882084
        </DataArray>
        <DataArray type="Float64" Name="nodal_strain_xx" format="ascii" RangeMin="0.0007807611729001671" RangeMax="0.0008187381100304984">
          0.0007807611729001673 0.0007807611729001673 0.0007807611729001673 0.0007807611729001671 0.0007807611729001671 0.0007807611729001671
          0.0007807611729001671 0.0007807611729001671 0.0007807611729001671 0.0007996221167873458 0.0007996221167873458 0.0007996221167873458
          0.0007996221167873458 0.0007996221167873458 0.0007996221167873458 0.0007996221167873459 0.0007996221167873458 0.0007996221167873458
          0.0008187381100304983 0.0008187381100304984 0.0008187381100304983 0.0008187381100304984 0.0008187381100304983 0.0008187381100304984
          0.0008187381100304983 0.0008187381100304984 0.0008187381100304983 0.0008003778832126538 0.0008003778832126538 0.0008003778832126538
          0.0008003778832126538 0.0008003778832126538 0.0008003778832126538 0.0008003778832126534 0.0008003778832126536 0.0008003778832126538
          0.0007817626070388353 0.0007817626070388353 0.0007817626070388353 0.0007817626070388353 0.0007817626070388353 0.0007817626070388355
          0.0007817626070388353 0.0007817626070388355 0.0007817626070388355
        </DataArray>
        <DataArray type="Float64" Name="nodal_strain_yy" format="ascii" RangeMin="-0.00012733863610580904" RangeMax="-0.00007002993244077168">
          -0.00007002993244077168 -0.00007002993244077169 -0.00007002993244077169 -0.00007002993244077169 -0.00007002993244077169 -0.00007002993244077169
          -0.0000700299324407717 -0.00007002993244077169 -0.00007002993244077169 -0.0000986109450458465 -0.0000986109450458465 -0.00009861094504584653
          -0.00009861094504584653 -0.00009861094504584653 -0.00009861094504584653 -0.00009861094504584656 -0.00009861094504584653 -0.00009861094504584653
          -0.00012733863610580898 -0.00012733863610580904 -0.000127338636105809 -0.00012733863610580904 -0.00012733863610580898 -0.00012733863610580904
          -0.000127338636105809 -0.00012733863610580904 -0.000127338636105809 -0.00009890430195562179 -0.00009890430195562182 -0.00009890430195562183
          -0.00009890430195562179 -0.00009890430195562179 -0.00009890430195562179 -0.00009890430195562178 -0.00009890430195562178 -0.00009890430195562178
          -0.00007032328935054697 -0.00007032328935054698 -0.00007032328935054699 -0.00007032328935054697 -0.00007032328935054697 -0.00007032328935054697
          -0.00007032328935054695 -0.00007032328935054694 -0.00007032328935054694
        </DataArray>
        <DataArray type="Float64" Name="nodal_strain_zz" format="ascii" RangeMin="-0.00012733863610580906" RangeMax="-0.00007002993244077167">
          -0.00007002993244077168 -0.00007002993244077167 -0.00007002993244077167 -0.00007002993244077169 -0.00007002993244077168 -0.00007002993244077168
          -0.00007002993244077169 -0.00007002993244077169 -0.00007002993244077169 -0.0000986109450458465 -0.00009861094504584649 -0.00009861094504584649
          -0.00009861094504584653 -0.0000986109450458465 -0.0000986109450458465 -0.00009861094504584653 -0.00009861094504584653 -0.00009861094504584653
          -0.000127338636105809 -0.00012733863610580904 -0.000127338636105809 -0.00012733863610580906 -0.000127338636105809 -0.000127338636105809
          -0.00012733863610580904 -0.00012733863610580904 -0.000127338636105809 -0.00009890430195562183 -0.00009890430195562183 -0.00009890430195562183
          -0.00009890430195562183 -0.00009890430195562182 -0.00009890430195562182 -0.00009890430195562182 -0.00009890430195562182 -0.00009890430195562182
          -0.000070323289350547 -0.000070323289350547 -0.00007032328935054699 -0.00007032328935054699 -0.000070323289350547 -0.00007032328935054698
          -0.00007032328935054698 -0.00007032328935054698 -0.00007032328935054698
        </DataArray>
        <DataArray type="Float64" Name="nodal_strain_yz" format="ascii" RangeMin="-3.91864847219348e-7" RangeMax="3.918648472193938e-7">
          3.82542072157348e-7 -7.444625512977246e-22 -3.825420721573495e-7 1.5013328117837446e-20 7.237830359838989e-22 -1.3565762045869648e-20
          -3.82542072157318e-7 2.1920286232655226e-21 3.825420721573223e-7 2.7040602079873886e-8 -5.697206468958975e-21 -2.7040602079885278e-8
          2.0886310466963938e-21 -4.1410729415935925e-21 -1.0370776929883578e-20 -2.7040602079869707e-8 -2.58493941422821e-21 2.704060207986454e-8
          -3.2379948046657507e-7 -1.96455395481344e-22 3.237994804665747e-7 -3.205324873642981e-21 -2.0576117737256552e-21 -9.0989867380833e-22
          3.237994804665687e-7 -3.918768151969967e-21 -3.2379948046657655e-7 3.6363377141921856e-8 1.656429176637437e-20 -3.636337714188873e-8
          1.474449441875771e-20 1.1342714149633386e-20 7.940933880509061e-21 -3.636337714189237e-8 6.121136532892402e-21 3.636337714190459e-8