<?xml version="1.0"?>
<VTKFile type="UnstructuredGrid" version="0.1" byte_order="LittleEndian" header_type="UInt32" compressor="vtkZLibDataCompressor">
  <UnstructuredGrid>
    <Piece NumberOfPoints="128" NumberOfCells="128">
      <PointData Scalars="qp_stress_von_mises" Vectors="displacement">
        <DataArray type="Float64" Name="displacement" NumberOfComponents="3" format="ascii" RangeMin="0.00004105885483541597" RangeMax="0.0007589050699316318">
          0.0000414468179532882 0.0000023380120941646725 -0.0000023380120941646657 0.00004124903826273844 0.000002330650068553459 -6.264684525256222e-7
          0.00004124903826273845 6.264684525256285e-7 -0.0000023306500685534523 0.00004104935529795885 6.244958037084466e-7 -6.244958037084403e-7
          0.00015468163041372946 0.000008725579924133067 -0.000008725579924133041 0.0001539435065598925 0.000008698104470505394 -0.000002338012094164673
          0.0001539435065598925 0.000002338012094164697 -0.00000869810447050537 0.00015319827958992907 0.0000023306500685534836 -0.0000023306500685534595
          0.00004124903826273844 0.0000023306500685534595 6.264684525256164e-7 0.00004144681795328819 0.0000023380120941646733 0.000002338012094164659
          0.000041049355297958846 6.244958037084469e-7 6.24495803708435e-7 0.00004124903826273844 6.264684525256294e-7 0.0000023306500685534468
          0.0001539435065598925 0.000008698104470505396 0.000002338012094164652 0.00015468163041372943 0.00000872557992413307 0.000008725579924133018
          0.00015319827958992907 0.000002330650068553485 0.0000023306500685534396 0.0001539435065598925 0.0000023380120941647004 0.00000869810447050535
          0.00004124903826273844 -6.264684525256106e-7 -0.0000023306500685534523 0.000041049355297958846 -6.24495803708429e-7 -6.244958037084401e-7
          0.00004144681795328819 -0.0000023380120941646555 -0.0000023380120941646657 0.00004124903826273844 -0.0000023306500685534425 -6.264684525256215e-7
          0.0001539435065598925 -0.0000023380120941646305 -0.00000869810447050537 0.00015319827958992907 -0.0000023306500685534176 -0.000002330650068553459
          0.00015468163041372943 -0.000008725579924133002 -0.000008725579924133043 0.0001539435065598925 -0.000008698104470505333 -0.0000023380120941646703
          0.000041049355297958846 -6.244958037084285e-7 6.244958037084353e-7 0.000041249038262738434 -6.264684525256095e-7 0.0000023306500685534476
          0.00004124903826273844 -0.000002330650068553442 6.264684525256179e-7 0.000041446817953288186 -0.0000023380120941646534 0.000002338012094164662
          0.00015319827958992907 -0.0000023306500685534163 0.0000023306500685534413 0.0001539435065598925 -0.0000023380120941646263 0.000008698104470505352
          0.0001539435065598925 -0.000008698104470505332 0.000002338012094164657 0.00015468163041372943 -0.000008725579924132997 0.000008725579924133028
          0.00023917337210355833 0.000010624139135489849 -0.000010624139135489822 0.0002384335160607773 0.00001061034693982528 -0.0000028467295016303987
          0.00023843351606077734 0.0000028467295016304224 -0.000010610346939825252 0.00023768659130852398 0.000002843033893940252 -0.000002843033893940223
          0.00035677429075971505 0.00000942353153212608 -0.000009423531532126076 0.00035657004645201786 0.000009467236120446244 -0.0000025250276638824313
          0.00035657004645201786 0.0000025250276638824364 -0.000009467236120446223 0.000356364027277472 0.0000025367382730283667 -0.000002536738273028343
          0.0002384335160607773 0.000010610346939825283 0.000002846729501630359 0.0002391733721035583 0.00001062413913548986 0.000010624139135489781
          0.00023768659130852398 0.0000028430338939402554 0.0000028430338939401885 0.00023843351606077734 0.0000028467295016304326 0.000010610346939825217
          0.00035657004645201786 0.000009467236120446252 0.000002525027663882352 0.00035677429075971505 0.000009423531532126106 0.000009423531532125995
          0.0003563640272774721 0.0000025367382730283735 0.000002536738273028282 0.00035657004645201786 0.000002525027663882462 0.000009467236120446159
          0.00023843351606077734 -0.0000028467295016303373 -0.00001061034693982525 0.00023768659130852398 -0.000002843033893940161 -0.000002843033893940221
          0.00023917337210355833 -0.000010624139135489764 -0.000010624139135489817 0.00023843351606077734 -0.000010610346939825195 -0.0000028467295016303907
          0.0003565700464520179 -0.000002525027663882347 -0.000009467236120446215 0.0003563640272774721 -0.0000025367382730282566 -0.0000025367382730283367
          0.0003567742907597151 -0.00000942353153212599 -0.000009423531532126052 0.0003565700464520179 -0.000009467236120446135 -0.000002525027663882409
          0.00023768659130852398 -0.000002843033893940158 0.000002843033893940192 0.00023843351606077734 -0.000002846729501630327 0.00001061034693982522
          0.00023843351606077734 -0.000010610346939825193 0.0000028467295016303695 0.00023917337210355833 -0.000010624139135489754 0.000010624139135489797
          0.000356364027277472 -0.00000253673827302825 0.000002536738273028288 0.00035657004645201786 -0.0000025250276638823233 0.000009467236120446166
          0.0003565700464520179 -0.00000946723612044613 0.0000025250276638823733 0.00035677429075971505 -0.000009423531532125969 0.000009423531532126017
          0.0004428807579627681 0.000009433399804230115 -0.000009433399804230117 0.00044307898936256975 0.000009476924975660558 -0.0000025276718594234026
          0.00044307898936256975 0.000002527671859423401 -0.00000947692497566054 0.0004432791160619001 0.0000025393343939586233 -0.000002539334393958603
          0.0005605270825656157 0.000010660968028365018 -0.000010660968028365025 0.0005612892863120324 0.000010646506239752283 -0.000002856597773734451
          0.0005612892863120324 0.00000285659777373445 -0.000010646506239752263 0.0005620581185963691 0.0000028527227491545645 -0.0000028527227491545446
          0.0004430789893625697 0.000009476924975660567 0.000002527671859423317 0.0004428807579627681 0.000009433399804230146 0.000009433399804230032
          0.00044327911606190014 0.0000025393343939586318 0.0000025393343939585386 0.0004430789893625697 0.0000025276718594234297 0.000009476924975660477
          0.0005612892863120323 0.00001064650623975229 0.000002856597773734385 0.0005605270825656157 0.000010660968028365044 0.000010660968028364959
          0.0005620581185963691 0.0000028527227491545704 0.0000028527227491544997 0.0005612892863120323 0.0000028565977737344726 0.000010646506239752219
          0.0004430789893625698 -0.000002527671859423316 -0.000009476924975660531 0.00044327911606190014 -0.000002539334393958515 -0.000002539334393958595
          0.00044288075796276817 -0.000009433399804230029 -0.000009433399804230088 0.0004430789893625698 -0.00000947692497566045 -0.000002527671859423375
          0.0005612892863120324 -0.0000028565977737343816 -0.000010646506239752254 0.0005620581185963691 -0.0000028527227491544773 -0.000002852722749154537
          0.0005605270825656157 -0.000010660968028364947 -0.000010660968028364991 0.0005612892863120324 -0.000010646506239752191 -0.0000028565977737344226
          0.0004432791160619001 -0.0000025393343939585073 0.0000025393343939585454 0.00044307898936256975 -0.0000025276718594232895 0.00000947692497566048
          0.0004430789893625698 -0.000009476924975660441 0.0000025276718594233416 0.00044288075796276817 -0.000009433399804230003 0.000009433399804230054
          0.000562058118596369 -0.0000028527227491544713 0.0000028527227491545065 0.0005612892863120324 -0.000002856597773734359 0.000010646506239752225
          0.0005612892863120324 -0.000010646506239752186 0.0000028565977737344108 0.0005605270825656157 -0.000010660968028364924 0.00001066096802836498
          0.0006450952331999365 0.000008762408817008236 -0.000008762408817008241 0.0006458591691352973 0.000008734263770432396 -0.0000023478803662687247
          0.0006458591691352973 0.0000023478803662687243 -0.00000873426377043238 0.0006466296992019239 0.000002340338923767796 -0.000002340338923767781
          0.0007584933928321917 0.0000023478803662687065 -0.000002347880366268708 0.0007586980888491408 0.0000023403389237677737 -6.291126480665934e-7
          0.0007586980888491408 6.291126480665931e-7 -0.00000234033892376777 0.0007589045517582373 6.270919246387037e-7 -6.270919246386997e-7
          0.0006458591691352973 0.000008734263770432401 0.0000023478803662686786 0.0006450952331999365 0.000008762408817008255 0.000008762408817008194
          0.0006466296992019239 0.0000023403389237678 0.0000023403389237677508 0.0006458591691352973 0.0000023478803662687404 0.000008734263770432352
          0.0007586980888491408 0.0000023403389237677745 6.29112648066581e-7 0.0007584933928321917 0.0000023478803662687116 0.000002347880366268695
          0.0007589045517582372 6.270919246387049e-7 6.270919246386917e-7 0.0007586980888491409 6.291126480665974e-7 0.000002340338923767762
          0.0006458591691352973 -0.0000023478803662686748 -0.000008734263770432374 0.0006466296992019239 -0.0000023403389237677334 -0.000002340338923767775
          0.0006450952331999365 -0.000008762408817008183 -0.000008762408817008216 0.0006458591691352973 -0.00000873426377043233 -0.000002347880366268702
          0.0007586980888491408 -6.291126480665799e-7 -0.0000023403389237677677 0.0007589045517582373 -6.270919246386869e-7 -6.270919246386981e-7
          0.0007584933928321916 -0.0000023478803662686925 -0.000002347880366268701 0.0007586980888491409 -0.000002340338923767756 -6.291126480665873e-7
          0.0006466296992019239 -0.000002340338923767729 0.0000023403389237677563 0.0006458591691352973 -0.0000023478803662686587 0.000008734263770432357
          0.0006458591691352973 -0.000008734263770432325 0.0000023478803662686985 0.0006450952331999366 -0.000008762408817008167 0.000008762408817008212
          0.0007589045517582373 -6.270919246386857e-7 6.270919246386933e-7 0.0007586980888491408 -6.291126480665757e-7 0.000002340338923767763
          0.0007586980888491408 -0.0000023403389237677546 6.291126480665864e-7 0.0007584933928321917 -0.0000023478803662686875 0.0000023478803662686997
          <InformationKey name="L2_NORM_RANGE" location="vtkDataArray" length="2">
            <Value index="0">
              4.1058854835e-05
            </Value>
            <Value index="1">
              0.00075890506993
            </Value>
          </InformationKey>
        </DataArray>
        <DataArray type="Float64" Name="qp_strain_voigt" NumberOfComponents="6" format="ascii" RangeMin="0.000778203524686981" RangeMax="0.0008450628774551102">
          0.0007845137934680702 -0.00002964480546690283 -0.000029644805466902824 2.55028048104901e-7 -0.000040828723345816624 0.00004082872334581649
          0.0007807701792905237 -0.0000295514587226189 -0.000029644805466902827 1.6168130382095025e-7 -0.000008432277459386966 0.00004065640775219247
          0.0007807701792905237 -0.000029644805466902834 -0.000029551458722618876 1.6168130382095473e-7 -0.00004065640775219283 0.000008432277459386851
          0.0007769905395515515 -0.000029551458722618876 -0.000029551458722618866 6.833455953700054e-8 -0.000008361973085005098 0.000008361973085004794
          0.0007845137934680705 -0.00011063592018297694 -0.00011063592018297694 9.517776328825812e-7 -0.00003146968790194971 0.000031469687901949934
          0.0007807701792905237 -0.00011028754539058809 -0.00011063592018297694 6.034028404937379e-7 9.267579844799135e-7 0.00003120730840476237
          0.0007807701792905237 -0.00011063592018297694 -0.0001102875453905881 6.034028404937559e-7 -0.00003120730840476235 -9.267579844796217e-7
          0.0007769905395515515 -0.00011028754539058809 -0.0001102875453905881 2.5502804810490237e-7 0.0000010871262624252748 -0.0000010871262624251975
          0.0007807701792905235 -0.000029551458722618886 -0.00002964480546690281 -1.6168130382095547e-7 0.000008432277459386888 0.0000406564077521928
          0.0007845137934680702 -0.000029644805466902848 -0.000029644805466902814 -2.55028048104912e-7 0.000040828723345816536 0.00004082872334581635
          0.0007769905395515515 -0.000029551458722618886 -0.000029551458722618873 -6.833455953700147e-8 0.000008361973085004996 0.0000083619730850051
          0.0007807701792905237 -0.000029644805466902827 -0.000029551458722618862 -1.6168130382096394e-7 0.00004065640775219273 0.000008432277459386699
          0.0007807701792905237 -0.00011028754539058809 -0.00011063592018297687 -6.034028404937619e-7 -9.267579844796911e-7 0.000031207308404762565
          0.0007845137934680702 -0.00011063592018297694 -0.00011063592018297687 -9.517776328825644e-7 0.000031469687901949914 0.00003146968790195018
          0.0007769905395515515 -0.00011028754539058809 -0.00011028754539058806 -2.550280481049188e-7 -0.0000010871262624253214 -0.0000010871262624252179
          0.0007807701792905237 -0.00011063592018297694 -0.00011028754539058806 -6.034028404937179e-7 0.00003120730840476231 -9.267579844793668e-7
          0.0007807701792905235 -0.000029644805466902838 -0.000029551458722618876 -1.6168130382092992e-7 -0.00004065640775219284 -0.000008432277459386858
          0.0007769905395515514 -0.000029551458722618886 -0.000029551458722618883 -6.833455953697639e-8 -0.000008361973085005086 -0.000008361973085005362
          0.0007845137934680704 -0.000029644805466902838 -0.000029644805466902834 -2.5502804810487463e-7 -0.00004082872334581665 -0.000040828723345816536
          0.0007807701792905237 -0.000029551458722618862 -0.000029644805466902827 -1.6168130382092193e-7 -0.000008432277459386977 -0.000040656407752193065
          0.0007807701792905236 -0.00011063592018297698 -0.0001102875453905881 -6.034028404937402e-7 -0.00003120730840476234 9.267579844798575e-7
          0.0007769905395515514 -0.00011028754539058816 -0.0001102875453905881 -2.550280481048559e-7 0.0000010871262624252996 0.000001087126262425335
          0.0007845137934680702 -0.00011063592018297698 -0.00011063592018297698 -9.51777632882563e-7 -0.00003146968790194972 -0.000031469687901949684
          0.0007807701792905237 -0.00011028754539058816 -0.00011063592018297698 -6.034028404936821e-7 9.267579844799033e-7 -0.00003120730840476226
          0.0007769905395515513 -0.00002955145872261889 -0.00002955145872261888 6.833455953698538e-8 0.000008361973085005038 -0.00000836197308500507
          0.0007807701792905236 -0.000029644805466902824 -0.000029551458722618883 1.6168130382092328e-7 0.0000406564077521927 -0.000008432277459387227
          0.0007807701792905236 -0.00002955145872261889 -0.000029644805466902834 1.6168130382092074e-7 0.000008432277459386932 -0.00004065640775219278
          0.0007845137934680702 -0.0000296448054669028 -0.000029644805466902827 2.5502804810486796e-7 0.0000408287233458166 -0.00004082872334581681
          0.0007769905395515514 -0.00011028754539058816 -0.00011028754539058808 2.550280481048781e-7 -0.0000010871262624253057 0.0000010871262624253138
          0.0007807701792905236 -0.00011063592018297695 -0.00011028754539058808 6.034028404937585e-7 0.000031207308404762314 9.267579844800858e-7
          0.0007807701792905236 -0.00011028754539058816 -0.00011063592018297695 6.034028404936806e-7 -9.267579844796216e-7 -0.00003120730840476229
          0.0007845137934680702 -0.00011063592018297695 -0.00011063592018297695 9.517776328825644e-7 0.00003146968790194998 -0.00003146968790194987
          0.0008147630645169519 -0.00013470868637120186 -0.00013470868637120183 4.777756727792908e-7 0.000021132736039752862 -0.000021132736039752832
          0.0008184738914701326 -0.00013453380833765437 -0.00013470868637120183 3.028976392318744e-7 0.0000150434982753058 -0.000020856820274720694
          0.0008184738914701327 -0.00013470868637120186 -0.0001345338083376544 3.02897639231866e-7 0.00002085682027472115 -0.000015043498275305913
          0.0008222213952408805 -0.00013453380833765437 -0.0001345338083376544 1.2801960568445294e-7 0.000015059194513557414 -0.000015059194513557113
          0.0008147630645169521 -0.00011948559196008426 -0.00011948559196008426 -0.0000015139713498878305 0.000011855668656801433 -0.000011855668656801534
          0.0008184738914701329 -0.00012003974393474495 -0.00011948559196008426 -9.598193752270347e-7 0.0000057664308923546936 -0.000011488060847852358
          0.0008184738914701329 -0.00011948559196008423 -0.00012003974393474502 -9.59819375227108e-7 0.00001148806084785238 -0.0000057664308923541294
          0.0008222213952408805 -0.00012003974393474498 -0.00012003974393474502 -4.0566740056631193e-7 0.000005690435086688426 -0.000005690435086688775
          0.0008184738914701326 -0.0001345338083376544 -0.00013470868637120175 -3.0289763923189867e-7 -0.000015043498275305866 -0.000020856820274720833
          0.0008147630645169519 -0.00013470868637120183 -0.00013470868637120175 -4.777756727792853e-7 -0.000021132736039752876 -0.00002113273603975252
          0.0008222213952408801 -0.0001345338083376544 -0.00013453380833765437 -1.2801960568446716e-7 -0.000015059194513557362 -0.00001505919451355703
          0.0008184738914701329 -0.00013470868637120183 -0.00013453380833765437 -3.028976392318538e-7 -0.000020856820274721226 -0.000015043498275305434
          0.000818473891470133 -0.00012003974393474499 -0.00011948559196008423 9.598193752270126e-7 -0.000005766430892353702 -0.00001148806084785217
          0.0008147630645169519 -0.00011948559196008425 -0.00011948559196008423 0.0000015139713498877553 -0.000011855668656801089 -0.000011855668656801602
          0.0008222213952408801 -0.00012003974393474496 -0.00012003974393474498 4.0566740056631405e-7 -0.000005690435086687723 -0.00000569043508668834
          0.0008184738914701329 -0.00011948559196008426 -0.00012003974393474498 9.598193752270533e-7 -0.000011488060847852021 -0.0000057664308923540846
          0.0008184738914701332 -0.00013470868637120188 -0.00013453380833765446 -3.0289763923188194e-7 0.00002085682027472114 0.000015043498275306035
          0.0008222213952408805 -0.00013453380833765446 -0.00013453380833765446 -1.2801960568443108e-7 0.000015059194513557396 0.000015059194513557707
          0.0008147630645169521 -0.00013470868637120188 -0.00013470868637120186 -4.777756727792796e-7 0.000021132736039752886 0.00002113273603975282
          0.0008184738914701335 -0.00013453380833765446 -0.00013470868637120186 -3.028976392318389e-7 0.000015043498275305912 0.00002085682027472131
          0.0008184738914701334 -0.00011948559196008423 -0.00012003974393474502 9.598193752270376e-7 0.000011488060847852072 0.000005766430892354033
          0.0008222213952408806 -0.000120039743934745 -0.00012003974393474502 4.05667400566229e-7 0.000005690435086688164 0.000005690435086687742
          0.0008147630645169519 -0.00011948559196008423 -0.00011948559196008422 0.0000015139713498877938 0.000011855668656801209 0.000011855668656801223
          0.0008184738914701335 -0.000120039743934745 -0.00011948559196008422 9.598193752269987e-7 0.000005766430892354237 0.000011488060847851672
          0.0008222213952408805 -0.00013453380833765448 -0.0001345338083376544 1.2801960568442904e-7 -0.000015059194513557457 0.000015059194513557492
          0.0008184738914701329 -0.00013470868637120186 -0.0001345338083376544 3.028976392318775e-7 -0.000020856820274721138 0.0000150434982753062
          0.0008184738914701329 -0.00013453380833765448 -0.00013470868637120183 3.028976392318182e-7 -0.000015043498275305842 0.00002085682027472136
          0.0008147630645169526 -0.00013470868637120186 -0.00013470868637120183 4.777756727792853e-7 -0.000021132736039752896 0.000021132736039753235
          0.0008222213952408808 -0.00012003974393474503 -0.00012003974393474498 -4.056674005662971e-7 -0.000005690435086687926 0.000005690435086688802
          0.0008184738914701331 -0.00011948559196008428 -0.00012003974393474498 -9.598193752270533e-7 -0.000011488060847851743 0.000005766430892354197
          0.0008184738914701329 -0.000120039743934745 -0.00011948559196008422 -9.598193752270364e-7 -0.000005766430892353733 0.000011488060847852428
          0.0008147630645169526 -0.00011948559196008429 -0.00011948559196008422 -0.0000015139713498877688 -0.000011855668656800794 0.000011855668656800482
          0.0008150776461434889 -0.00011961071663653434 -0.00011961071663653434 -0.0000015077561665131324 -0.00001193831069695316 0.000011938310696953652
          0.0008189849611770948 -0.00012016259369619074 -0.00011961071663653434 -9.558791068566638e-7 -0.000005712334143169309 0.000011569392803860548
          0.0008189849611770945 -0.00011961071663653431 -0.00012016259369619075 -9.55879106856723e-7 -0.000011569392803861182 0.000005712334143170249
          0.0008229250690482113 -0.00012016259369619071 -0.00012016259369619075 -4.040020472002366e-7 -0.0000056375143267103425 0.000005637514326709758
          0.000815077646143489 -0.00013517565802099397 -0.00013517565802099405 5.009710529120147e-7 -0.00002170659828096668 0.000021706598280967335
          0.0008189849611770949 -0.00013499228988906757 -0.00013517565802099405 3.176029209855658e-7 -0.00001548062172718256 0.000021419662481653715
          0.0008189849611770945 -0.00013517565802099397 -0.0001349922898890676 3.176029209856148e-7 -0.0000214196624816537 0.00001548062172718301
          0.0008229250690482113 -0.00013499228988906757 -0.0001349922898890676 1.3423478905915902e-7 -0.000015487784004503075 0.000015487784004503577
          0.0008189849611770947 -0.00012016259369619074 -0.00011961071663653434 9.558791068566619e-7 0.000005712334143169706 0.000011569392803861722
          0.0008150776461434893 -0.00011961071663653436 -0.00011961071663653435 0.00000150775616651309 0.000011938310696953726 0.00001193831069695254
          0.0008229250690482112 -0.00012016259369619074 -0.00012016259369619073 4.040020472002735e-7 0.000005637514326710979 0.0000056375143267107186
          0.0008189849611770942 -0.00011961071663653431 -0.00012016259369619073 9.558791068566635e-7 0.000011569392803861836 0.000005712334143169375
          0.000818984961177095 -0.0001349922898890676 -0.00013517565802099405 -3.176029209855344e-7 0.000015480621727183714 0.00002141966248165348
          0.0008150776461434892 -0.00013517565802099402 -0.00013517565802099405 -5.009710529119745e-7 0.00002170659828096714 0.00002170659828096671
          0.0008229250690482113 -0.0001349922898890676 -0.0001349922898890676 -1.3423478905908077e-7 0.00001548778400450415 0.00001548778400450242
          0.0008189849611770941 -0.00013517565802099402 -0.0001349922898890676 -3.176029209855344e-7 0.00002141966248165457 0.00001548062172718246
          0.0008189849611770947 -0.00011961071663653427 -0.00012016259369619078 9.558791068566608e-7 -0.000011569392803861334 -0.0000057123341431698625
          0.000822925069048211 -0.00012016259369619071 -0.0001201625936961908 4.040020472001812e-7 -0.000005637514326710249 -0.000005637514326711392
          0.0008150776461434886 -0.00011961071663653427 -0.00011961071663653424 0.0000015077561665131144 -0.000011938310696953156 -0.000011938310696953754
          0.0008189849611770937 -0.00012016259369619069 -0.00011961071663653424 9.558791068566356e-7 -0.0000057123341431694585 -0.000011569392803862615
          0.0008189849611770945 -0.00013517565802099391 -0.00013499228988906757 -3.176029209855251e-7 -0.000021419662481653255 -0.000015480621727183057
          0.000822925069048211 -0.00013499228988906751 -0.00013499228988906757 -1.3423478905912553e-7 -0.000015487784004502604 -0.000015487784004504125
          0.0008150776461434883 -0.00013517565802099391 -0.000135175658020994 -5.009710529119313e-7 -0.000021706598280966244 -0.00002170659828096733
          0.0008189849611770937 -0.00013499228988906751 -0.000135175658020994 -3.1760292098553855e-7 -0.000015480621727182328 -0.000021419662481654047
          0.0008229250690482111 -0.00012016259369619073 -0.00012016259369619074 -4.040020472002388e-7 0.000005637514326710817 -0.000005637514326710967
          0.0008189849611770945 -0.00011961071663653432 -0.00012016259369619077 -9.55879106856711e-7 0.000011569392803861453 -0.000005712334143170023
          0.0008189849611770939 -0.00012016259369619073 -0.00011961071663653427 -9.558791068566585e-7 0.000005712334143169198 -0.000011569392803861566
          0.0008150776461434887 -0.00011961071663653428 -0.00011961071663653427 -0.0000015077561665131036 0.000011938310696953272 -0.00001193831069695332
          0.0008229250690482116 -0.00013499228988906751 -0.0001349922898890676 1.3423478905916548e-7 0.000015487784004503387 -0.00001548778400450316
          0.0008189849611770948 -0.0001351756580209939 -0.0001349922898890676 3.176029209855751e-7 0.000021419662481654295 -0.000015480621727182677
          0.000818984961177094 -0.00013499228988906751 -0.000135175658020994 3.1760292098555813e-7 0.000015480621727182284 -0.00002141966248165403
          0.0008150776461434885 -0.0001351756580209939 -0.000135175658020994 5.009710529119339e-7 0.000021706598280966135 -0.0000217065982809664
          0.000785645495871488 -0.00011110289183276914 -0.00011110289183276921 9.749730130153142e-7 0.000031209398195381974 -0.00003120939819538181
          0.0007817709680622482 -0.0001107460269420013 -0.0001111028918327692 6.181081222474333e-7 -0.00000132378648038463 -0.00003095243853523319
          0.0007817709680622482 -0.00011110289183276911 -0.0001107460269420013 6.181081222474957e-7 0.000030952438535233624 0.0000013237864803847927
          0.0007778629961593567 -0.0001107460269420013 -0.00011074602694200132 2.612432314796047e-7 -0.0000014762488479407726 0.0000014762488479414231
          0.0007856454958714878 -0.000029769930143352862 -0.000029769930143352882 2.612432314795958e-7 0.000040895717718480995 -0.00004089571771848078
          0.0007817709680622486 -0.000029674308484064598 -0.000029769930143352882 1.656215721913171e-7 0.000008362533042714608 -0.00004072236829246508
          0.0007817709680622485 -0.000029769930143352862 -0.000029674308484064608 1.6562157219133138e-7 0.000040722368292464214 -0.000008362533042713524
          0.0007778629961593567 -0.000029674308484064608 -0.00002967430848406461 6.999991290305858e-8 0.000008293680909289385 -0.000008293680909289385
          0.0007817709680622484 -0.00011074602694200132 -0.0001111028918327692 -6.18108122247385e-7 0.0000013237864803848469 -0.00003095243853523346
          0.0007856454958714877 -0.00011110289183276915 -0.00011110289183276917 -9.749730130152604e-7 -0.00003120939819538176 -0.000031209398195383275
          0.0007778629961593558 -0.00011074602694200131 -0.00011074602694200131 -2.6124323147952986e-7 0.0000014762488479422905 0.0000014762488479418026
          0.0007817709680622495 -0.00011110289183276917 -0.00011074602694200132 -6.181081222473883e-7 -0.00003095243853523232 0.000001323786480383329
          0.0007817709680622487 -0.000029674308484064605 -0.000029769930143352876 -1.6562157219130288e-7 -0.00000836253304271374 -0.000040722368292464865
          0.0007856454958714878 -0.00002976993014335287 -0.000029769930143352876 -2.612432314795739e-7 -0.00004089571771848013 -0.000040895717718480995
          0.0007778629961593559 -0.000029674308484064605 -0.000029674308484064608 -6.999991290303778e-8 -0.000008293680909289385 -0.000008293680909290035
          0.0007817709680622495 -0.000029769930143352876 -0.000029674308484064615 -1.6562157219130626e-7 -0.000040722368292464214 -0.00000836253304271374
          0.0007817709680622484 -0.00011110289183276909 -0.00011074602694200131 -6.181081222473824e-7 0.000030952438535233624 -0.0000013237864803846843
          0.0007778629961593558 -0.00011074602694200123 -0.0001107460269420013 -2.6124323147955093e-7 -0.0000014762488479409894 -0.0000014762488479418568
          0.0007856454958714877 -0.00011110289183276907 -0.00011110289183276913 -9.749730130152172e-7 0.00003120939819538284 0.000031209398195382136
          0.0007817709680622495 -0.00011074602694200124 -0.00011110289183276914 -6.181081222473789e-7 -0.0000013237864803835458 0.00003095243853523232
          0.0007817709680622483 -0.00002976993014335285 -0.0000296743084840646 -1.656215721913098e-7 0.000040722368292464214 0.000008362533042713957
          0.000777862996159356 -0.000029674308484064588 -0.0000296743084840646 -6.999991290304372e-8 0.000008293680909289385 0.000008293680909289385
          0.0007856454958714879 -0.00002976993014335285 -0.000029769930143352865 -2.6124323147956644e-7 0.000040895717718480995 0.000040895717718480344
          0.0007817709680622495 -0.000029674308484064594 -0.000029769930143352872 -1.6562157219130033e-7 0.000008362533042714608 0.00004072236829246508
          0.000777862996159356 -0.00011074602694200124 -0.00011074602694200134 2.612432314796112e-7 0.0000014762488479414231 -0.0000014762488479408268
          0.0007817709680622486 -0.000111102891832769 -0.00011074602694200131 6.18108122247429e-7 -0.000030952438535232756 -0.0000013237864803835458
          0.0007817709680622486 -0.00011074602694200124 -0.00011110289183276911 6.181081222474053e-7 0.0000013237864803835458 0.00003095243853523292
          0.0007856454958714886 -0.00011110289183276903 -0.00011110289183276914 9.749730130152468e-7 -0.00003120939819538349 0.00003120939819538371
          0.000777862996159356 -0.00002967430848406458 -0.000029674308484064605 6.999991290305641e-8 -0.000008293680909289385 0.000008293680909289601
          0.0007817709680622488 -0.00002976993014335284 -0.000029674308484064605 1.6562157219131982e-7 -0.000040722368292464214 0.00000836253304271374
          0.0007817709680622492 -0.00002967430848406458 -0.000029769930143352865 1.656215721913139e-7 -0.000008362533042714608 0.00004072236829246443
          0.0007856454958714881 -0.000029769930143352842 -0.000029769930143352872 2.612432314795705e-7 -0.000040895717718480995 0.00004089571771848013
          <InformationKey name="L2_NORM_RANGE" location="vtkDataArray" length="2">
            <Value index="0">