<?xml version="1.0"?>
<VTKFile type="UnstructuredGrid" version="0.1" byte_order="LittleEndian" header_type="UInt32" compressor="vtkZLibDataCompressor">
  <UnstructuredGrid>
    <Piece NumberOfPoints="45" NumberOfCells="16">
      <PointData Scalars="nodal_stress_von_mises" Vectors="displacement">
        <DataArray type="Float64" Name="displacement" NumberOfComponents="3" format="ascii" RangeMin="0" RangeMax="0.0008">
          0 0 0 0 0 0
          0 0 0 0 0 0
          0 0 0 0 0 0
          0 0 0 0 0 0
          0 0 0 0.0002002221583600576 0.000006960201225744907 -0.000006960201225744861
          0.00019948625615506807 0.000006958075692632297 7.113576156677422e-20 0.00020022215836005766 0.000006960201225744971 0.0000069602012257450065
          0.00019948625615506804 -3.2748175502733637e-20 -0.000006958075692632197 0.00019874906528831367 2.8224684339512664e-21 1.0556065469320006e-19
          0.0001994862561550681 2.840580778424522e-20 0.000006958075692632397 0.00020022215836005771 -0.0000069602012257449676 -0.000006960201225744807
          0.00019948625615506807 -0.000006958075692632302 1.2512790408453728e-19 0.00020022215836005771 -0.000006960201225744911 0.000006960201225745071
          0.0004000000000000001 0.000005331209661815062 -0.0000053312096618149805 0.00039999999999999996 0.00000534017308192537 1.417931279474863e-19
          0.0004 0.000005331209661815109 0.000005331209661815287 0.00040000000000000013 -7.272688803502537e-20 -0.000005340173081925235
          0.0004000000000000002 -4.9399973939530204e-20 1.7580091963927247e-19 0.0004000000000000001 -1.6184584864938986e-20 0.000005340173081925591
          0.0004000000000000002 -0.000005331209661815214 -0.000005331209661814916 0.0004000000000000002 -0.0000053401730819254625 2.1340760232220078e-19
          0.0004000000000000003 -0.000005331209661815141 0.0000053312096618153455 0.0005997778416399424 0.000006960201225744867 -0.0000069602012257448185
          0.0006005137438449322 0.00000695807569263222 1.0068138428780295e-19 0.0005997778416399423 0.000006960201225744896 0.000006960201225745019
          0.000600513743844932 -5.512057577099187e-20 -0.000006958075692632165 0.0006012509347116863 -3.5985910917367664e-20 1.0523227892138048e-19
          0.000600513743844932 -5.006723874242217e-20 0.000006958075692632383 0.0005997778416399424 -0.000006960201225744964 -0.0000069602012257448015
          0.000600513743844932 -0.0000069580756926323235 1.0801142708510637e-19 0.0005997778416399423 -0.000006960201225744964 0.000006960201225745011
          0.0008 0 0 0.0008 0 0
          0.0008 0 0 0.0008 0 0
          0.0008 0 0 0.0008 0 0
          0.0008 0 0 0.0008 0 0
          0.0008 0 0
          <InformationKey name="L2_NORM_RANGE" location="vtkDataArray" length="2">
            <Value index="0">
              0
            </Value>
            <Value index="1">
              0.0008
            </Value>
          </InformationKey>
        </DataArray>
        <DataArray type="Float64" Name="nodal_strain_voigt" NumberOfComponents="6" format="ascii" RangeMin="0.0007994596213443975" RangeMax="0.0008067542338815759">
          0.0007979437359585073 -0.00003479569229594308 -0.00003479569229594308 1.062766556318386e-8 -0.00001023554423901716 0.000010235544239017142
          0.0007979437359585073 -0.00003479569229594309 -0.00003479569229594308 -1.8346607492484723e-21 1.932293910923872e-19 0.000010235544239017188
          0.0007979437359585073 -0.000034795692295943094 -0.000034795692295943074 -1.062766556318753e-8 0.000010235544239017547 0.000010235544239017235
          0.0007979437359585073 -0.00003479569229594309 -0.00003479569229594308 -2.0734445276378032e-20 -0.000010235544239016976 -8.205631676526031e-20
          0.0007979437359585073 -0.000034795692295943094 -0.00003479569229594308 -1.0591789249800092e-20 2.752857078576475e-19 -7.610061635487852e-20
          0.0007979437359585075 -0.0000347956922959431 -0.00003479569229594308 -4.491332232221516e-22 0.000010235544239017527 -6.94831714544543e-20
          0.0007979437359585073 -0.000034795692295943094 -0.00003479569229594309 -1.062766556322533e-8 -0.000010235544239016793 -0.000010235544239017306
          0.0007979437359585075 -0.0000347956922959431 -0.00003479569229594309 -1.9348917750351714e-20 3.573420246229078e-19 -0.00001023554423901734
          0.0007979437359585075 -0.00003479569229594311 -0.00003479569229594309 1.0627665563186631e-8 0.000010235544239017508 -0.000010235544239017374
          0.0008 -0.000048134920725618764 -0.000048134920725618743 -1.1780884712507475e-8 -0.0000016529586925101626 0.000001652958692510258
          0.0007999999999999998 -0.000048134920725618764 -0.00004813492072561876 7.245585178081672e-21 1.9256764660234475e-19 0.0000016529586925103225
          0.0007999999999999997 -0.000048134920725618764 -0.000048134920725618764 1.1780884712521967e-8 0.0000016529586925105478 0.0000016529586925103875
          0.0008 -0.00004813492072561878 -0.000048134920725618743 -3.911013333727282e-21 -0.000001652958692510055 -6.551270451419976e-20
          0.0007999999999999998 -0.000048134920725618764 -0.00004813492072561876 9.628899318000083e-23 2.0762233375080983e-19 -1.555099551599691e-20
          0.0008 -0.00004813492072561878 -0.000048134920725618764 4.1035913200872835e-21 0.0000016529586925104703 3.4410713482205933e-20
          0.0008 -0.00004813492072561878 -0.00004813492072561876 1.1780884712499653e-8 -0.000001652958692509948 -0.000001652958692510389
          0.0008 -0.00004813492072561878 -0.000048134920725618764 -7.05300719172167e-21 2.226770208992749e-19 -0.0000016529586925103538
          0.0008000000000000003 -0.00004813492072561878 -0.00004813492072561878 -1.178088471251376e-8 0.0000016529586925103936 -0.0000016529586925103187
          0.0008020562640414925 -0.00006147414915529439 -0.00006147414915529436 -3.418943498818438e-8 1.5881867761018122e-20 -1.2837843106822982e-19
          0.0008020562640414927 -0.00006147414915529441 -0.0000614741491552944 9.777533334318207e-21 7.113753267956036e-20 -4.83073477730968e-20
          0.0008020562640414924 -0.00006147414915529441 -0.00006147414915529443 3.418943498820393e-8 1.2639319759810256e-19 3.2425480012078667e-20
          0.0008020562640414925 -0.00006147414915529441 -0.00006147414915529436 1.8826113753824058e-20 2.911675756186656e-20 -4.797647552807559e-20
          0.0008020562640414924 -0.00006147414915529441 -0.00006147414915529437 9.433090157372296e-21 -2.183756817139992e-20 3.474158572722715e-21
          0.0008020562640414927 -0.00006147414915529441 -0.00006147414915529443 4.006656092053726e-23 -7.24610216596452e-20 5.525566491854222e-20
          0.0008020562640414924 -0.00006147414915529443 -0.00006147414915529435 3.418943498822203e-8 4.168990287267257e-20 3.2425480012078667e-20
          0.0008020562640414927 -0.00006147414915529441 -0.00006147414915529439 9.088646980426389e-21 -1.148126690223602e-19 5.525566491854222e-20
          0.0008020562640414924 -0.00006147414915529439 -0.00006147414915529439 -3.4189434988203854e-8 -2.7131524091739293e-19 7.808584982500576e-20
          0.0007999999999999997 -0.00004813492072561863 -0.000048134920725618635 -1.178088471247877e-8 0.000001652958692510105 -0.0000016529586925105603
          0.0007999999999999997 -0.00004813492072561866 -0.00004813492072561866 -4.038967834731578e-21 -9.264422860593905e-20 -0.0000016529586925104667
          0.0007999999999999997 -0.00004813492072561868 -0.00004813492072561868 1.1780884712470692e-8 -0.0000016529586925102903 -0.000001652958692510373
          0.0007999999999999997 -0.00004813492072561866 -0.00004813492072561863 7.043636786345093e-21 0.0000016529586925101093 6.352747104407249e-20
          0.0007999999999999995 -0.00004813492072561867 -0.00004813492072561865 -1.1700082023650437e-21 -2.00012272115322e-19 6.534726839168915e-20
          0.0007999999999999997 -0.00004813492072561868 -0.00004813492072561866 -9.383653191075182e-21 -0.0000016529586925105097 6.716706573930581e-20
          0.0007999999999999995 -0.00004813492072561868 -0.000048134920725618615 1.1780884712492857e-8 0.0000016529586925101137 0.0000016529586925106874
          0.0007999999999999995 -0.00004813492072561867 -0.00004813492072561863 1.6989514300014912e-21 -3.0738031562470494e-19 0.000001652958692510597
          0.0007999999999999995 -0.00004813492072561867 -0.00004813492072561863 -1.1780884712489459e-8 -0.0000016529586925107284 0.0000016529586925105074
          0.000797943735958507 -0.000034795692295942945 -0.00003479569229594297 1.0627665563212403e-8 0.000010235544239017012 -0.000010235544239017488
          0.000797943735958507 -0.00003479569229594297 -0.00003479569229594298 -1.1306524997834191e-20 -1.3565762045869647e-19 -0.00001023554423901738
          0.000797943735958507 -0.000034795692295943006 -0.00003479569229594298 -1.0627665563235017e-8 -0.000010235544239017283 -0.000010235544239017269
          0.000797943735958507 -0.00003479569229594296 -0.00003479569229594296 -1.065318156088801e-20 0.000010235544239017025 1.7403880088115693e-19
          0.000797943735958507 -0.00003479569229594298 -0.000034795692295942965 -1.0421829483314586e-20 -2.1639044824387192e-19 1.6775222822575392e-19
          0.000797943735958507 -0.000034795692295943 -0.00003479569229594296 -1.019047740574116e-20 -0.000010235544239017459 1.6212740006039333e-19
          0.000797943735958507 -0.00003479569229594298 -0.000034795692295942945 -1.062766556323371e-8 0.000010235544239017039 0.000010235544239017837
          0.000797943735958507 -0.00003479569229594299 -0.000034795692295942945 -9.537133968794982e-21 -2.971232760290474e-19 0.000010235544239017716
          0.0007979437359585072 -0.000034795692295943 -0.000034795692295942945 1.0627665563214635e-8 -0.000010235544239017633 0.000010235544239017594
          <InformationKey name="L2_NORM_RANGE" location="vtkDataArray" length="2">
            <Value index="0">
              0.00079945962134
            </Value>
            <Value index="1">
              0.00080675423388
            </Value>
          </InformationKey>
        </DataArray>
        <DataArray type="Float64" Name="nodal_stress_voigt" NumberOfComponents="6" format="ascii" RangeMin="22.860263723045225" RangeMax="22.881366427170306">
          22.859561408592437 0.692915831849815 0.692915831849813 0.00014144862597719227 -0.13622969787016964 0.13622969787016942
          22.85956140859244 0.6929158318498138 0.6929158318498138 -2.4426312616445877e-17 2.5695591487906447e-15 0.13622969787017003
          22.85956140859244 0.6929158318498126 0.6929158318498145 -0.00014144862597724114 0.13622969787017478 0.13622969787017067
          22.85956140859244 0.6929158318498143 0.692915831849814 -2.7596333421545095e-16 -0.1362296978701672 -1.084202172485504e-15
          22.85956140859244 0.6929158318498138 0.692915831849814 -1.4097275220271722e-16 3.653761321276148e-15 -1.0028870095490912e-15
          22.85956140859244 0.6929158318498131 0.6929158318498139 -5.982170189983494e-18 0.1362296978701745 -9.215718466126784e-16
          22.85956140859244 0.6929158318498135 0.6929158318498149 -0.0001414486259777442 -0.13622969787016476 -0.13622969787017158
          22.85956140859244 0.6929158318498136 0.6929158318498141 -2.5751919178898856e-16 4.737963493761653e-15 -0.13622969787017206
          22.85956140859244 0.6929158318498136 0.6929158318498133 0.00014144862597722916 0.13622969787017422 -0.1362296978701725
          22.859561408592437 0.2831040545893746 0.2831040545893741 -0.000156797364903217 -0.022000008794271254 0.02200000879427255
          22.859561408592437 0.28310405458937404 0.28310405458937427 9.641352522122069e-17 2.5614276324970026e-15 0.02200000879427341
          22.859561408592437 0.2831040545893736 0.2831040545893744 0.0001567973649034098 0.02200000879427638 0.02200000879427427
          22.85956140859244 0.2831040545893742 0.28310405458937477 -5.209252625613944e-17 -0.022000008794269825 -8.619407271259755e-16
          22.85956140859244 0.28310405458937427 0.2831040545893746 1.259961509040771e-18 2.7552287708287866e-15 -1.9786689647860446e-16
          22.85956140859244 0.2831040545893744 0.28310405458937427 5.4612449274220984e-17 0.022000008794275338 4.6349642873755285e-16
          22.85956140859244 0.2831040545893738 0.2831040545893754 0.00015679736490311282 -0.0220000087942684 -0.022000008794274273
          22.85956140859244 0.28310405458937454 0.28310405458937477 -9.389360220313914e-17 2.9490299091605705e-15 -0.022000008794273815
          22.859561408592448 0.28310405458937515 0.28310405458937415 -0.0001567973649033006 0.022000008794274297 -0.022000008794273343
          22.85956140859244 -0.12670772267106398 -0.12670772267106298 -0.0004550433557834341 2.2768245622195583e-16 -1.6805133673525309e-15
          22.85956140859244 -0.12670772267106417 -0.12670772267106387 1.3008308487457913e-16 9.513874063560297e-16 -6.288372600415924e-16
          22.85956140859243 -0.1267077226710643 -0.12670772267106475 0.0004550433557836943 1.6750923564901034e-15 4.28259858131774e-16
          22.85956140859244 -0.12670772267106445 -0.12670772267106323 2.505311699741406e-16 3.9031278209478145e-16 -6.234162491791649e-16
          22.859561408592434 -0.12670772267106414 -0.1267077226710638 1.2551969487124656e-16 -2.886688284242654e-16 5.421010862427519e-17
          22.859561408592434 -0.12670772267106392 -0.1267077226710645 5.0821976835258e-19 -9.70360944374526e-16 7.34546971858929e-16
          22.859561408592434 -0.12670772267106487 -0.12670772267106342 0.0004550433557839352 5.583641188300345e-16 4.3368086899420153e-16
          22.85956140859244 -0.1267077226710642 -0.12670772267106384 1.2095630486791404e-16 -1.5287250632045607e-15 7.372574772901427e-16
          22.859561408592437 -0.1267077226710635 -0.1267077226710642 -0.00045504335578369333 -3.615814245239156e-15 1.0408340855860837e-15
          22.859561408592437 0.28310405458937815 0.2831040545893775 -0.0001567973649028349 0.022000008794270505 -0.02200000879427654
          22.859561408592437 0.28310405458937693 0.2831040545893766 -5.378659215064804e-17 -1.2197274440461919e-15 -0.02200000879427531
          22.859561408592434 0.28310405458937565 0.2831040545893758 0.00015679736490272733 -0.022000008794272947 -0.02200000879427408
          22.85956140859243 0.2831040545893774 0.2831040545893774 9.375066539328998e-17 0.02200000879427056 8.619407271259755e-16
          22.859561408592427 0.2831040545893767 0.28310405458937693 -1.5580112273558778e-17 -2.6508743117270568e-15 8.727827488508306e-16
          22.85956140859243 0.283104054589376 0.2831040545893765 -1.2491088994040753e-16 -0.022000008794275862 8.836247705756856e-16
          22.859561408592427 0.2831040545893766 0.28310405458937726 0.0001567973649030224 0.022000008794270616 0.022000008794278263
          22.859561408592427 0.2831040545893765 0.2831040545893772 2.2626367603530485e-17 -4.082021179407922e-15 0.022000008794277055
          22.859561408592427 0.2831040545893764 0.28310405458937715 -0.00015679736490297716 -0.02200000879427878 0.022000008794275844
          22.859561408592434 0.6929158318498185 0.6929158318498162 0.0001414486259775722 0.13622969787016767 -0.136229697870174
          22.859561408592437 0.6929158318498166 0.6929158318498159 -1.5047540307972638e-16 -1.7889335846010815e-15 -0.13622969787017256
          22.859561408592437 0.6929158318498146 0.6929158318498155 -0.00014144862597787315 -0.13622969787017125 -0.1362296978701711
          22.85956140859243 0.6929158318498179 0.6929158318498168 -1.4178272745852912e-16 0.13622969787016787 2.3310346708438333e-15
          22.859561408592437 0.6929158318498168 0.6929158318498168 -1.3871223302473229e-16 -2.8677147462241577e-15 2.244298497044993e-15
          22.859561408592437 0.6929158318498155 0.6929158318498166 -1.3564173859093545e-16 -0.13622969787017358 2.1467203015212976e-15
          22.85956140859243 0.6929158318498172 0.6929158318498175 -0.00014144862597785575 0.13622969787016803 0.13622969787017866
          22.859561408592434 0.6929158318498168 0.6929158318498176 -1.269490629697382e-16 -3.946495907847234e-15 0.13622969787017705
          22.859561408592437 0.6929158318498164 0.6929158318498179 0.00014144862597760186 -0.13622969787017594 0.13622969787017541
          <InformationKey name="L2_NORM_RANGE" location="vtkDataArray" length="2">
            <Value index="0">
              22.860263723
            </Value>
            <Value index="1">
              22.881366427
            </Value>
          </InformationKey>
        </DataArray>
        <DataArray type="Float64" Name="nodal_plastic_strain_voigt" NumberOfComponents="6" format="ascii" RangeMin="1.5933903276857992e-19" RangeMax="2.114557574053284e-19">
          1.2197274440461925e-19 8.533856943587075e-20 1.247256014831957e-19 4.652890945610781e-25 0 -8.470329472543001e-22
          1.2197274440461925e-19 1.0831433813014364e-19 1.1487884347136448e-19 2.8434333556510326e-25 0 -8.4703294725430015e-22
          1.2197274440461922e-19 1.3129010682441653e-19 1.0503208545953324e-19 1.0339757656912844e-25 0 -8.4703294725430015e-22
          1.2197274440461925e-19 9.582060215814271e-20 1.0884373372217757e-19 2.3264454728053903e-25 0 -4.772832134430969e-22
          1.1180834903756762e-19 1.1318477757685586e-19 1.120730468335846e-19 7.754818242684633e-26 1.0505193779423454e-22 -5.558653716356345e-22
          1.0164395367051602e-19 1.3054895299556902e-19 1.153023599449916e-19 -7.754818242684639e-26 2.1010387558846908e-22 -6.344475298281721e-22
          1.2197274440461925e-19 1.0630263488041468e-19 9.296186596115944e-20 0 0 -1.0753347963189357e-22
          1.0164395367051604e-19 1.1805521702356809e-19 1.092672501958047e-19 -1.292469707114106e-25 2.1010387558846908e-22 -2.6469779601696886e-22
          8.131516293641282e-20 1.298077991667215e-19 1.2557263443045e-19 -2.584939414228212e-25 4.2020775117693815e-22 -4.2186211240204416e-22
          1.3552527156068805e-19 9.814994276309203e-20 1.2927840357468757e-19 8.530300066953096e-25 -5.293955920339377e-23 -3.441071348220593e-22
          1.1858461261560202e-19 1.0730848650527915e-19 1.1884931041161902e-19 4.4913322322215165e-25 5.293955920339376e-23 -3.705769144237562e-22
          1.01643953670516e-19 1.1646703024746627e-19 1.0842021724855044e-19 4.523643974899368e-26 1.588186776101813e-22 -3.9704669402545314e-22
          1.1858461261560205e-19 1.0381447559785516e-19 1.1583175553702557e-19 7.367077330550403e-25 -7.940933880509062e-23 -2.518764965223968e-22
          9.825582188149882e-20 1.0879079416297415e-19 1.1554058796140688e-19 3.554291694563791e-25 1.2531786280178372e-22 -3.1101991031993826e-22
          7.792703114739561e-20 1.137671127280932e-19 1.1524942038578824e-19 -2.5849394142282126e-26 3.3004506440865804e-22 -3.7016332411747974e-22
          1.0164395367051604e-19 1.094790084326183e-19 1.0238510749936353e-19 6.203854594147709e-25 -1.0587911840678747e-22 -1.596458582227343e-22
          7.792703114739562e-20 1.102731018206692e-19 1.1223186551119477e-19 2.617251156906065e-25 1.9769616640017364e-22 -2.514629062161203e-22
          5.4210108624275204e-20 1.110671952087201e-19 1.2207862352302601e-19 -9.693522803355793e-26 5.012714512071348e-22 -3.4327995420950634e-22
          9.486769009248164e-20 1.0545560193316038e-19 1.257843926672636e-19 6.203854594147707e-25 -2.6469779601696903e-23 -1.588186776101813e-22
          9.486769009248165e-20 1.0524384369634683e-19 1.2027867851011067e-19 3.198862525107412e-25 1.455837878093329e-22 -1.323488980084845e-23
          9.486769009248164e-20 1.0503208545953324e-19 1.147729643529577e-19 1.938704560671158e-26 3.1763735522036263e-22 1.323488980084844e-22
          7.792703114739566e-20 1.113848325639405e-19 1.2154922793099212e-19 5.169878828456425e-25 1.323488980084847e-23 -1.8528845721187822e-22
          7.115076756936123e-20 1.0693790959085542e-19 1.2017279939170384e-19 5.282969927828908e-25 1.3896634290890865e-22 -7.940933880509061e-23
          6.437450399132683e-20 1.0249098661777035e-19 1.1879637085241565e-19 5.396061027201392e-25 2.646977960169689e-22 2.6469779601696927e-23
          6.098637220230962e-20 1.173140631947206e-19 1.173140631947206e-19 4.135903062765141e-25 5.293955920339383e-23 -2.1175823681357504e-22
          4.7433845046240825e-20 1.0863197548536404e-19 1.2006692027329707e-19 7.367077330550406e-25 1.3234889800848445e-22 -1.455837878093328e-22
          3.388131789017201e-20 9.994988777600744e-20 1.2281977735187355e-19 1.0598251598335667e-24 2.117582368135751e-22 -7.940933880509054e-23
          6.098637220230962e-20 9.317362419797304e-20 1.291725244562808e-19 -1.5509636485369267e-25 -1.8528845721187827e-22 -2.646977960169682e-23
          6.098637220230961e-20 1.0757318430129612e-19 1.2763727723938238e-19 -1.421716677825516e-25 9.223063829966259e-23 1.4558378780933292e-22
          6.098637220230961e-20 1.2197274440461922e-19 1.2610203002248396e-19 -1.2924697071141057e-25 3.6974973381120346e-22 3.1763735522036267e-22
          5.082197683525802e-20 1.0259686573617713e-19 1.2557263443045e-19 -2.0679515313825687e-25 -1.1952759851391252e-22 -1.7288074802358276e-22
          4.743384504624082e-20 1.095848875510251e-19 1.239050383155431e-19 1.0824433797080638e-25 6.576085869796568e-23 -4.6735704609246034e-23
          4.404571325722361e-20 1.1657290936587308e-19 1.2223744220063622e-19 4.232838290798697e-25 2.510493159098439e-22 7.940933880509072e-23
          4.065758146820641e-20 1.1202010727438122e-19 1.2197274440461922e-19 -2.584939414228211e-25 -5.37667398159468e-23 -3.1929171644546873e-22
          3.388131789017201e-20 1.1159659080075405e-19 1.2017279939170384e-19 3.586603437241644e-25 3.9291079096268773e-23 -2.39055197027825e-22
          2.7105054312137602e-20 1.111730743271269e-19 1.1837285437878847e-19 9.758146288711498e-25 1.3234889800848433e-22 -1.5881867761018122e-22
          8.131516293641283e-20 8.639736061993862e-20 1.4060746924421386e-19 -3.1019272970738533e-25 -4.235164736271503e-22 4.235164736271503e-22
          4.743384504624082e-20 1.1096131609031332e-19 1.37536974810417e-19 -3.1019272970738533e-25 -8.271806125530096e-25 4.235164736271503e-22
          1.3552527156068808e-20 1.3552527156068803e-19 1.3446648037662018e-19 -3.1019272970738533e-25 4.218621124020442e-22 4.235164736271503e-22
          6.098637220230962e-20 9.42324153820409e-20 1.3086659035078938e-19 -2.0679515313825692e-25 -4.243436542397032e-22 -1.654361225106056e-24
          3.726944967918921e-20 1.096907666694319e-19 1.2647260693690772e-19 -2.0679515313825692e-25 -8.271806125530464e-25 -8.2718061255297285e-25
          1.3552527156068801e-20 1.2514911795682285e-19 1.2207862352302601e-19 -2.0679515313825692e-25 4.2268929301459714e-22 1.102025953895894e-37
          4.0657581468206416e-20 1.0206747014414318e-19 1.2112571145736492e-19 -1.0339757656912848e-25 -4.251708348522562e-22 -4.268251960773624e-22
          2.7105054312137605e-20 1.0842021724855044e-19 1.154082390633984e-19 -1.0339757656912848e-25 -8.271806125530831e-25 -4.251708348522562e-22
          1.3552527156068796e-20 1.147729643529577e-19 1.096907666694319e-19 -1.0339757656912848e-25 4.2351647362715003e-22 -4.2351647362715003e-22
          <InformationKey name="L2_NORM_RANGE" location="vtkDataArray" length="2">
            <Value index="0">
              1.5933903277e-19
            </Value>
            <Value index="1">
              2.1145575741e-19
            </Value>
          </InformationKey>
        </DataArray>
        <DataArray type="Float64" Name="nodal_equivalent_plastic_strain" format="ascii" RangeMin="0" RangeMax="0">
          0 0 0 0 0 0
          0 0 0 0 0 0
          0 0 0 0 0 0
          0 0 0 0 0 0
          0 0 0 0 0 0
          0 0 0 0 0 0
          0 0 0 0 0 0
          0 0 0
        </DataArray>
        <DataArray type="Float64" Name="nodal_strain_xx" format="ascii" RangeMin="0.000797943735958507" RangeMax="0.0008020562640414927">
          0.0007979437359585073 0.0007979437359585073 0.0007979437359585073 0.0007979437359585073 0.0007979437359585073 0.0007979437359585075
          0.0007979437359585073 0.0007979437359585075 0.0007979437359585075 0.0008 0.0007999999999999998 0.0007999999999999997
          0.0008 0.0007999999999999998 0.0008 0.0008 0.0008 0.0008000000000000003
          0.0008020562640414925 0.0008020562640414927 0.0008020562640414924 0.0008020562640414925 0.0008020562640414924 0.0008020562640414927
          0.0008020562640414924 0.0008020562640414927 0.0008020562640414924 0.0007999999999999997 0.0007999999999999997 0.0007999999999999997
          0.0007999999999999997 0.0007999999999999995 0.0007999999999999997 0.0007999999999999995 0.0007999999999999995 0.0007999999999999995
          0.000797943735958507 0.000797943735958507 0.000797943735958507 0.000797943735958507 0.000797943735958507 0.000797943735958507
          0.000797943735958507 0.000797943735958507 0.0007979437359585072
        </DataArray>
        <DataArray type="Float64" Name="nodal_strain_yy" format="ascii" RangeMin="-0.00006147414915529443" RangeMax="-0.000034795692295942945">
          -0.00003479569229594308 -0.00003479569229594309 -0.000034795692295943094 -0.00003479569229594309 -0.000034795692295943094 -0.0000347956922959431
          -0.000034795692295943094 -0.0000347956922959431 -0.00003479569229594311 -0.000048134920725618764 -0.000048134920725618764 -0.000048134920725618764
          -0.00004813492072561878 -0.000048134920725618764 -0.00004813492072561878 -0.00004813492072561878 -0.00004813492072561878 -0.00004813492072561878
          -0.00006147414915529439 -0.00006147414915529441 -0.00006147414915529441 -0.00006147414915529441 -0.00006147414915529441 -0.00006147414915529441
          -0.00006147414915529443 -0.00006147414915529441 -0.00006147414915529439 -0.00004813492072561863 -0.00004813492072561866 -0.00004813492072561868
          -0.00004813492072561866 -0.00004813492072561867 -0.00004813492072561868 -0.00004813492072561868 -0.00004813492072561867 -0.00004813492072561867
          -0.000034795692295942945 -0.00003479569229594297 -0.000034795692295943006 -0.00003479569229594296 -0.00003479569229594298 -0.000034795692295943
          -0.00003479569229594298 -0.00003479569229594299 -0.000034795692295943
        </DataArray>
        <DataArray type="Float64" Name="nodal_strain_zz" format="ascii" RangeMin="-0.00006147414915529443" RangeMax="-0.000034795692295942945">
          -0.00003479569229594308 -0.00003479569229594308 -0.000034795692295943074 -0.00003479569229594308 -0.00003479569229594308 -0.00003479569229594308
          -0.00003479569229594309 -0.00003479569229594309 -0.00003479569229594309 -0.000048134920725618743 -0.00004813492072561876 -0.000048134920725618764
          -0.000048134920725618743 -0.00004813492072561876 -0.000048134920725618764 -0.00004813492072561876 -0.000048134920725618764 -0.00004813492072561878
          -0.00006147414915529436 -0.0000614741491552944 -0.00006147414915529443 -0.00006147414915529436 -0.00006147414915529437 -0.00006147414915529443
          -0.00006147414915529435 -0.00006147414915529439 -0.00006147414915529439 -0.000048134920725618635 -0.00004813492072561866 -0.00004813492072561868
          -0.00004813492072561863 -0.00004813492072561865 -0.00004813492072561866 -0.000048134920725618615 -0.00004813492072561863 -0.00004813492072561863
          -0.00003479569229594297 -0.00003479569229594298 -0.00003479569229594298 -0.00003479569229594296 -0.000034795692295942965 -0.00003479569229594296
          -0.000034795692295942945 -0.000034795692295942945 -0.000034795692295942945
        </DataArray>
        <DataArray type="Float64" Name="nodal_strain_yz" format="ascii" RangeMin="-3.4189434988203854e-8" RangeMax="3.418943498822203e-8">
          1.062766556318386e-8 -1.8346607492484723e-21 -1.062766556318753e-8 -2.0734445276378032e-20 -1.0591789249800092e-20 -4.491332232221516e-22
          -1.062766556322533e-8 -1.9348917750351714e-20 1.0627665563186631e-8 -1.1780884712507475e-8 7.245585178081672e-21 1.1780884712521967e-8
          -3.911013333727282e-21 9.628899318000083e-23 4.1035913200872835e-21 1.1780884712499653e-8 -7.05300719172167e-21 -1.178088471251376e-8
          -3.418943498818438e-8 9.777533334318207e-21 3.418943498820393e-8 1.8826113753824058e-20 9.433090157372296e-21 4.006656092053726e-23
          3.418943498822203e-8 9.088646980426389e-21 -3.4189434988203854e-8 -1.178088471247877e-8 -4.038967834731578e-21 1.1780884712470692e-8
          7.043636786345093e-21 -1.1700082023650437e-21 -9.383653191075182e-21 1.1780884712492857e-8 1.6989514300014912e-21 -1.1780884712489459e-8
          1.0627665563212403e-8 -1.1306524997834191e-20 -1.0627665563235017e-8 -1.065318156088801e-20 -1.0421829483314586e-20 -1.019047740574116e-20
          -1.062766556323371e-8 -9.537133968794982e-21 1.0627665563214635e-8
        </DataArray>
        <DataArray type="Float64" Name="nodal_strain_xz" format="ascii" RangeMin="-0.000010235544239017633" RangeMax="0.000010235544239017547">
          -0.00001023554423901716 1.932293910923872e-19 0.000010235544239017547 -0.000010235544239016976 2.752857078576475e-19 0.000010235544239017527
          -0.000010235544239016793 3.573420246229078e-19 0.000010235544239017508 -0.0000016529586925101626 1.9256764660234475e-19 0.0000016529586925105478
          -0.000001652958692510055 2.0762233375080983e-19 0.0000016529586925104703 -0.000001652958692509948 2.226770208992749e-19 0.0000016529586925103936
          1.5881867761018122e-20 7.113753267956036e-20 1.2639319759810256e-19 2.911675756186656e-20 -2.183756817139992e-20 -7.24610216596452e-20
          4.168990287267257e-20 -1.148126690223602e-19 -2.7131524091739293e-19 0.000001652958692510105 -9.264422860593905e-20 -0.0000016529586925102903
          0.0000016529586925101093 -2.00012272115322e-19 -0.0000016529586925105097 0.0000016529586925101137 -3.0738031562470494e-19 -0.0000016529586925107284